You are running Q-Chem version: 4.3

#
# job setting
#
local host:  tp-linux1
current dir: /home/thomas/fs-XAS-test01/pyrazine/qchem
input file:  adc_input3.inp
output file: 
nprocs     : 1
nthreads   : 16
#
# qchem installation setting
#
QC:          /mnt/software/qchem
QCAUX:       /mnt/software/qchem/qcaux
QCPROG:      /mnt/software/qchem/exe/qcprog.exe
QCPROG_S:    /mnt/software/qchem/exe/qcprog.exe_s
PARALLEL:    -DPARALLEL
QCMPI:       mpich
#
# qchem directory setting
#
qcrun:       qchem9120
QCSCRATCH:   /scratch/qchem
QCLOCALSCR:  
QCTMPDIR:    /scratch/qchem
QCFILEPREF:  /scratch/qchem/qchem9120
QCSAVEDIR:   
workdirs:    /scratch/qchem/qchem9120
workdir0:    /scratch/qchem/qchem9120
partmpdirs =  
#
# parallel setting
#
QCRSH:           ssh
QCMPI:           mpich
QCMPIRUN:        /mnt/software/qchem/bin/mpi/mpirun_qchem
QCMACHINEFILE:   /mnt/software/qchem/bin/mpi/machines
127.0.1.1 32

#
# env setting
#
exported envs:   QC QCAUX QCSCRATCH QCRUNNAME QCFILEPREF QCPROG QCPROG_S GUIFILE

Running Job 1 of 1 adc_input3.inp
qchem adc_input3.inp_9120.0 /scratch/qchem/qchem9120/ 1
/mnt/software/qchem/bin/mpi/mpirun_qchem -machinefile /mnt/software/qchem/bin/mpi/machines -np 1 /mnt/software/qchem/exe/qcprog.exe adc_input3.inp_9120.0 /scratch/qchem/qchem9120/

Process 0 of 1 is on tp-linux1 - thread support 0
initial socket setup ...start
initial socket setup ...done 
now start server 0 ... 

cmd = ssh tp-linux1 /mnt/software/qchem/bin/get_hostid 1412140249 > /scratch/qchem/qchem9120/lic.dat
                  Welcome to Q-Chem
     A Quantum Leap Into The Future Of Chemistry


 Q-Chem 4.3, Q-Chem, Inc., Pleasanton, CA (2015)

 Y. Shao,  Z. Gan,  E. Epifanovsky,  A. T. B. Gilbert,  M. Wormit,  
 J. Kussmann,  A. W. Lange,  A. Behn,  J. Deng,  X. Feng,  D. Ghosh,  
 M. Goldey,  P. R. Horn,  L. D. Jacobson,  I. Kaliman,  R. Z. Khaliullin,  
 T. Kus,  A. Landau,  J. Liu,  E. I. Proynov,  Y. M. Rhee,  R. M. Richard,  
 M. A. Rohrdanz,  R. P. Steele,  E. J. Sundstrom,  H. L. Woodcock III,  
 P. M. Zimmerman,  D. Zuev,  B. Albrecht,  E. Alguire,  B. Austin,  
 S. A. Baeppler,  G. J. O. Beran,  Y. A. Bernard,  E. Berquist,  
 K. Brandhorst,  K. B. Bravaya,  S. T. Brown,  D. Casanova,  C.-M. Chang,  
 Y. Chen,  S. H. Chien,  K. D. Closser,  D. L. Crittenden,  M. Diedenhofen,  
 R. A. DiStasio Jr.,  H. Do,  A. D. Dutoi,  R. G. Edgar,  P.-T. Fang,  
 S. Fatehi,  Q. Feng,  L. Fusti-Molnar,  A. Ghysels,  
 A. Golubeva-Zadorozhnaya,  J. Gomes,  A. Gunina,  M. W. D. Hanson-Heine,  
 P. H. P. Harbach,  A. W. Hauser,  E. G. Hohenstein,  Z. C. Holden,  K. Hui,  
 T.-C. Jagau,  H. Ji,  B. Kaduk,  K. Khistyaev,  Jaehoon Kim,  Jihan Kim,  
 R. A. King,  P. Klunzinger,  D. Kosenkov,  T. Kowalczyk,  C. M. Krauter,  
 K. U. Lao,  A. Laurent,  K. V. Lawler,  S. Lehtola,  S. V. Levchenko,  
 C. Y. Lin,  Y.-S. Lin,  F. Liu,  E. Livshits,  R. C. Lochan,  A. Luenser,  
 P. Manohar,  S. F. Manzer,  S.-P. Mao,  N. Mardirossian,  A. V. Marenich,  
 L. A. Martinez-Martinez,  S. A. Maurer,  N. J. Mayhall,  K. Nanda,  
 C. M. Oana,  R. Olivares-Amaya,  D. P. O'Neill,  J. A. Parkhill,  
 T. M. Perrine,  R. Peverati,  P. A. Pieniazek,  F. Plasser,  A. Prociuk,  
 D. R. Rehn,  E. Rosta,  N. J. Russ,  N. Sergueev,  S. M. Sharada,  
 S. Sharma,  D. W. Small,  A. Sodt,  T. Stauch,  T. Stein,  D. Stuck,  
 Y.-C. Su,  A. J. W. Thom,  T. Tsuchimochi,  L. Vogt,  O. Vydrov,  T. Wang,  
 M. A. Watson,  J. Wenzel,  A. White,  C. F. Williams,  V. Vanovschi,  
 S. Yeganeh,  S. R. Yost,  Z.-Q. You,  I. Y. Zhang,  X. Zhang,  Y. Zhao,  
 B. R. Brooks,  G. K. L. Chan,  D. M. Chipman,  C. J. Cramer,  
 W. A. Goddard III,  M. S. Gordon,  W. J. Hehre,  A. Klamt,  
 H. F. Schaefer III,  M. W. Schmidt,  C. D. Sherrill,  D. G. Truhlar,  
 A. Warshel,  X. Xu,  A. Aspuru-Guzik,  R. Baer,  A. T. Bell,  N. A. Besley,  
 J.-D. Chai,  A. Dreuw,  B. D. Dunietz,  T. R. Furlani,  S. R. Gwaltney,  
 C.-P. Hsu,  Y. Jung,  J. Kong,  D. S. Lambrecht,  W. Liang,  C. Ochsenfeld,  
 V. A. Rassolov,  L. V. Slipchenko,  J. E. Subotnik,  T. Van Voorhis,  
 J. M. Herbert,  A. I. Krylov,  P. M. W. Gill,  M. Head-Gordon

 Contributors to earlier versions of Q-Chem not listed above: 
 R. D. Adamson,  J. Baker,  E. F. C. Byrd,  A. K. Chakraborty,  C.-L. Cheng,  
 H. Dachsel,  R. J. Doerksen,  G. Hawkins,  A. Heyden,  S. Hirata,  
 G. Kedziora,  F. J. Keil,  C. Kelley,  P. P. Korambath,  W. Kurlancheek,  
 A. M. Lee,  M. S. Lee,  D. Liotard,  I. Lotan,  P. E. Maslen,  N. Nair,  
 D. Neuhauser,  R. Olson,  B. Peters,  J. Ritchie,  N. E. Schultz,  
 N. Shenvi,  A. C. Simmonett,  K. S. Thanthiriwatte,  Q. Wu,  W. Zhang

 Please cite Q-Chem as follows:
 Y. Shao et al., Mol. Phys. 113, 184-215 (2015)
 DOI: 10.1080/00268976.2014.952696

 Q-Chem 4.3.0 for Intel X86 Linux

 Parts of Q-Chem use Armadillo 5.200.1 (Boston Tea Smuggler).
 http://arma.sourceforge.net/

 Q-Chem begins on Tue Jan 17 14:06:34 2017  

Host: 
0

     Scratch files written to /scratch/qchem/qchem9120//
 Nov1815 1189b_ 19540  19532 5443   
 Parallel job on  1  processors
Processing $rem in /mnt/software/qchem/config/preferences.
 MEM_TOTAL  2000 

Checking the input file for inconsistencies... 	...done.

--------------------------------------------------------------
User input:
--------------------------------------------------------------
$comment
job3 - cvs-adc(2)-x calculation with mom to prevent collapse to ground state
$end

$molecule
0 1
C    -0.696126    -1.136419     0.000000
C     0.696126    -1.136419     0.000000
N    -1.417532     0.000000     0.000000
N     1.417532     0.000000     0.000000
C     0.696126     1.136419     0.000000
C    -0.696126     1.136419     0.000000
H     1.250625     2.067160     0.000000
H    -1.250625     2.067160     0.000000
H     1.250625    -2.067160     0.000000
H    -1.250625    -2.067160     0.000000
$end

$rem
mem_total 3000
mem_static 1500
method cvs-adc(2)-x
basis 6-311+G*
ee_states 6
cc_rest_occ 1                  !only excitations from the 1st orbital (N 1s)
unrestricted  true
max_scf_cycles 200
mom_start 1
symmetry off
$end

--------------------------------------------------------------
 ----------------------------------------------------------------
             Standard Nuclear Orientation (Angstroms)
    I     Atom           X                Y                Z
 ----------------------------------------------------------------
    1      C       1.1364190000    -0.6961260000     0.0000000000
    2      C       1.1364190000     0.6961260000     0.0000000000
    3      N       0.0000000000    -1.4175320000     0.0000000000
    4      N       0.0000000000     1.4175320000     0.0000000000
    5      C      -1.1364190000     0.6961260000     0.0000000000
    6      C      -1.1364190000    -0.6961260000     0.0000000000
    7      H      -2.0671600000     1.2506250000     0.0000000000
    8      H      -2.0671600000    -1.2506250000     0.0000000000
    9      H       2.0671600000     1.2506250000     0.0000000000
   10      H       2.0671600000    -1.2506250000     0.0000000000
 ----------------------------------------------------------------
 Molecular Point Group                 D2h   NOp =  8
 Largest Abelian Subgroup              D2h   NOp =  8
 Nuclear Repulsion Energy =   207.9974042823 hartrees
 There are       21 alpha and       21 beta electrons
 Requested basis set is 6-311+G(d)
 There are 48 shells and 144 basis functions

 Total QAlloc Memory Limit   3000 MB
 Mega-Array Size      1467 MB
 MEM_STATIC part      1500 MB

                       Distance Matrix (Angstroms)
             C (  1)   C (  2)   N (  3)   N (  4)   C (  5)   C (  6)
   C (  2)  1.392252
   N (  3)  1.346059  2.399791
   N (  4)  2.399791  1.346059  2.835064
   C (  5)  2.665363  2.272838  2.399791  1.346059
   C (  6)  2.272838  2.665363  1.346059  2.399791  1.392252
   H (  7)  3.748701  3.251213  3.375235  2.073887  1.083396  2.157804
   H (  8)  3.251213  3.748701  2.073887  3.375235  2.157804  1.083396
   H (  9)  2.157804  1.083396  3.375235  2.073887  3.251213  3.748701
   H ( 10)  1.083396  2.157804  2.073887  3.375235  3.748701  3.251213
             H (  7)   H (  8)   H (  9)
   H (  8)  2.501250
   H (  9)  4.134320  4.832065
   H ( 10)  4.832065  4.134320  2.501250
 
 tim1(1): 
  3.999999999999997E-003
 tim1(2): 
  1.000000000000000E-006
 A cutoff of  1.0D-11 yielded   1146 shell pairs
 There are     10569 function pairs (     11484 Cartesian)
 
 -------------------------------------------------------
 OpenMP Integral Computing Module                       
 Release: version 1.0, May 2013, Q-Chem Inc. Pittsburgh 
 -------------------------------------------------------
 Integral Job Info:
 Integral job number is                      11
 Integral operator is                         1
 short-range coefficients                     0
 long-range coefficients              100000000
 Omega coefficients                           0
 if combine SR and LR in K                    0
 Integral screening is                        0
 Integral computing path is                   2
 max size of driver memory is            800000
 size of driver memory is                593474
 size of scratch memory is              2260544
 max col of scratch BK array               1296
 max len of scratch array in speh3          155
 max len of scratch index in speh4           18
 max int batch size is                      520
 min int batch size is                       52
 fixed nKL is                                52
 max L of basis functions is                  2
 order of int derivative is                   0
 number of shells is                         48
 number of basis is                         150
 number of cartesian basis is               150
 number of contracted shell pairs          1146
 number of primitive shell pairs           3470
 maxK2 (contraction) of shell pair           36
 max number of K2 of shell pair               1
 max number of CS2 of shell pair            173
 max number of PS2 of shell pair            648
 mem total for path MDJ                   29946
 -------------------------------------------------------
 Smallest overlap matrix eigenvalue = 4.10E-05

 Scale SEOQF with 1.000000e-01/1.000000e-01/1.000000e-01

 Standard Electronic Orientation quadrupole field applied
 Nucleus-field energy     =     0.0000000050 hartrees
 Guess from superposition of atomic densities
 Warning:  Energy on first SCF cycle will be non-variational
 An unrestricted Hartree-Fock SCF calculation will be
 performed using Pulay DIIS extrapolation
 SCF converges when DIIS error is below 1.0E-08
 using 16 threads for integral computing 

 Q-Chem warning in module /home/scratch/svnadmin/1189b_zgan/qchem/scfman/scfman.C, line 2967:

 Can not start MOM on the first SCF cycle with SAD

 ---------------------------------------
  Cycle       Energy         DIIS Error
 ---------------------------------------
    1    -264.9303542342      6.12E-02
 MOM overlap:    20.9758455994 / 21
 MOM overlap:    20.9758455994 / 21
    2    -262.6621313494      4.45E-03
 MOM overlap:    20.9967442831 / 21
 MOM overlap:    20.9967442831 / 21
    3    -262.7247826901      1.74E-03
 MOM overlap:    20.9993296788 / 21
 MOM overlap:    20.9993296788 / 21
    4    -262.7320281474      7.73E-04
 MOM overlap:    20.9999651965 / 21
 MOM overlap:    20.9999651965 / 21
    5    -262.7337672295      1.39E-04
 MOM overlap:    20.9999909259 / 21
 MOM overlap:    20.9999909259 / 21
    6    -262.7338516360      4.74E-05
 MOM overlap:    20.9999981036 / 21
 MOM overlap:    20.9999981036 / 21
    7    -262.7338673614      1.82E-05
 MOM overlap:    20.9999999354 / 21
 MOM overlap:    20.9999999354 / 21
    8    -262.7338696940      3.16E-06
 MOM overlap:    20.9999999976 / 21
 MOM overlap:    20.9999999976 / 21
    9    -262.7338697741      6.29E-07
 MOM overlap:    20.9999999999 / 21
 MOM overlap:    20.9999999999 / 21
   10    -262.7338697771      1.18E-07
 MOM overlap:    21.0000000000 / 21
 MOM overlap:    21.0000000000 / 21
   11    -262.7338697772      2.30E-08
 MOM overlap:    21.0000000000 / 21
 MOM overlap:    21.0000000000 / 21
   12    -262.7338697771      3.88E-09 Convergence criterion met
 ---------------------------------------
 <S^2> = 0.0000
 SCF time:  CPU 43.22 s  wall 4.50 s
 SCF   energy in the final basis set = -262.7338697771
 Total energy in the final basis set = -262.7338697771
================================================================================
|                                                                              |
|                                 A D C  M A N                                 |
|                                                                              |
 ------------------------------------------------------------------------------ 
|                                                                              |
| Components:                                                                  |
|                                                                              |
| - libvmm - 1.2-release                                                       |
|   Authors:                                                                   |
|   Evgeny Epifanovsky, Ilya Kaliman                                           |
|                                                                              |
| - libtensor - 2.4-trunk                                                      |
|   Authors:                                                                   |
|   Evgeny Epifanovsky, Michael Wormit, Dmitry Zuev, Sam Manzer                |
|                                                                              |
| - libwfa - 1.1-beta                                                          |
|   Authors:                                                                   |
|   Felix Plasser, Stefanie Baeppler, Benjamin Thomitzni, Michael Wormit       |
|                                                                              |
| - libadc - 1.0-beta                                                          |
|   Authors:                                                                   |
|   Michael Wormit, Philipp H. P. Harbach, Caroline Krauter, Dirk Rehn,        |
|   Matthias Schneider, Jan Wenzel                                             |
|                                                                              |
| - adcman - 2.4-beta                                                          |
|   Authors:                                                                   |
|   Michael Wormit, Philipp H. P. Harbach, Caroline Krauter, Dirk Rehn,        |
|   Jan Wenzel, Andreas Dreuw                                                  |
|                                                                              |
| Authors of earlier versions of ADCMAN:                                       |
| Andreas Dreuw, Jan Hendrik Starcke, Dirk Rehn, Michael Wormit                |
|                                                                              |
================================================================================

 
 Alpha MOs, Unrestricted
 -- Occupied --                  
-15.601 -15.601 -11.292 -11.292 -11.291 -11.291  -1.309  -1.220
  1 B2u   1 Ag    1 B3u   2 Ag    2 B2u   1 B1g   3 Ag    3 B2u                
 -1.059  -0.909  -0.890  -0.731  -0.706  -0.682  -0.617  -0.574
  2 B3u   4 Ag    2 B1g   5 Ag    3 B3u   4 B2u   4 B3u   1 B1u                
 -0.554  -0.504  -0.435  -0.419  -0.363
  3 B1g   5 B2u   1 B3g   6 Ag    1 B2g                                        
 -- Virtual --                   
  0.064   0.064   0.074   0.084   0.099   0.100   0.112   0.119
  7 Ag    2 B1u   5 B3u   6 B2u   4 B1g   1 Au    8 Ag    3 B1u                
  0.128   0.141   0.142   0.146   0.147   0.186   0.187   0.204
  2 B3g   9 Ag    2 B2g   7 B2u   6 B3u   5 B1g   8 B2u   7 B3u                
  0.206   0.252   0.272   0.284   0.302   0.305   0.311   0.311
  2 Au    6 B1g  10 Ag    4 B1u   8 B3u   9 B2u  11 Ag    3 B3g                
  0.323   0.335   0.349   0.365   0.369   0.413   0.414   0.417
  7 B1g  12 Ag    4 B3g  10 B2u   9 B3u  13 Ag    8 B1g  11 B2u                
  0.461   0.517   0.532   0.611   0.662   0.684   0.699   0.724
 10 B3u  12 B2u   9 B1g  14 Ag   13 B2u  11 B3u   5 B1u   3 B2g                
  0.734   0.735   0.742   0.787   0.795   0.836   0.910   0.930
 15 Ag   12 B3u  10 B1g   5 B3g   3 Au   11 B1g  14 B2u  16 Ag                 
  0.930   0.968   0.969   0.973   1.009   1.041   1.061   1.078
 15 B2u  13 B3u  12 B1g  16 B2u  17 Ag   13 B1g  14 B3u   6 B1u                
  1.101   1.143   1.150   1.185   1.187   1.196   1.298   1.299
 18 Ag   17 B2u   6 B3g  14 B1g  18 B2u  15 B3u   7 B1u   4 B2g                
  1.313   1.391   1.460   1.544   1.584   1.629   1.645   1.711
 15 B1g  19 Ag    5 B2g   8 B1u  20 Ag    4 Au    7 B3g  19 B2u                
  1.806   1.860   1.866   1.910   2.008   2.113   2.114   2.143
 16 B3u  21 Ag   20 B2u  17 B3u  22 Ag   18 B3u   5 Au   16 B1g                
  2.221   2.293   2.416   2.531   2.578   2.584   2.628   2.637
  8 B3g  21 B2u  17 B1g  22 B2u  18 B1g   9 B1u  23 B2u  23 Ag                 
  2.662   2.699   2.791   2.946   2.990   3.106   3.135   3.137
  6 B2g   9 B3g  19 B3u  24 Ag    6 Au   10 B1u  24 B2u  25 Ag                 
  3.155   3.173   3.222   3.270   3.324   3.347   3.603   3.632
 20 B3u   7 B2g  19 B1g   7 Au   10 B3g  20 B1g  26 Ag   21 B3u                
  3.763   3.809   3.838   3.861   3.865   4.324   4.335   4.344
 25 B2u  22 B3u  21 B1g  26 B2u  27 Ag   11 B1u  22 B1g  27 B2u                
  4.412   4.697   5.036   5.258   5.794  24.709  24.834  25.144
 11 B3g  28 Ag   28 B2u  23 B3u  23 B1g  29 Ag   24 B3u  24 B1g                
 25.160  36.887  37.060
 29 B2u  30 Ag   30 B2u                                                        
 
 Beta MOs, Unrestricted
 -- Occupied --                  
-15.601 -15.601 -11.292 -11.292 -11.291 -11.291  -1.309  -1.220
  1 B2u   1 Ag    1 B3u   2 Ag    2 B2u   1 B1g   3 Ag    3 B2u                
 -1.059  -0.909  -0.890  -0.731  -0.706  -0.682  -0.617  -0.574
  2 B3u   4 Ag    2 B1g   5 Ag    3 B3u   4 B2u   4 B3u   1 B1u                
 -0.554  -0.504  -0.435  -0.419  -0.363
  3 B1g   5 B2u   1 B3g   6 Ag    1 B2g                                        
 -- Virtual --                   
  0.064   0.064   0.074   0.084   0.099   0.100   0.112   0.119
  7 Ag    2 B1u   5 B3u   6 B2u   4 B1g   1 Au    8 Ag    3 B1u                
  0.128   0.141   0.142   0.146   0.147   0.186   0.187   0.204
  2 B3g   9 Ag    2 B2g   7 B2u   6 B3u   5 B1g   8 B2u   7 B3u                
  0.206   0.252   0.272   0.284   0.302   0.305   0.311   0.311
  2 Au    6 B1g  10 Ag    4 B1u   8 B3u   9 B2u  11 Ag    3 B3g                
  0.323   0.335   0.349   0.365   0.369   0.413   0.414   0.417
  7 B1g  12 Ag    4 B3g  10 B2u   9 B3u  13 Ag    8 B1g  11 B2u                
  0.461   0.517   0.532   0.611   0.662   0.684   0.699   0.724
 10 B3u  12 B2u   9 B1g  14 Ag   13 B2u  11 B3u   5 B1u   3 B2g                
  0.734   0.735   0.742   0.787   0.795   0.836   0.910   0.930
 15 Ag   12 B3u  10 B1g   5 B3g   3 Au   11 B1g  14 B2u  16 Ag                 
  0.930   0.968   0.969   0.973   1.009   1.041   1.061   1.078
 15 B2u  13 B3u  12 B1g  16 B2u  17 Ag   13 B1g  14 B3u   6 B1u                
  1.101   1.143   1.150   1.185   1.187   1.196   1.298   1.299
 18 Ag   17 B2u   6 B3g  14 B1g  18 B2u  15 B3u   7 B1u   4 B2g                
  1.313   1.391   1.460   1.544   1.584   1.629   1.645   1.711
 15 B1g  19 Ag    5 B2g   8 B1u  20 Ag    4 Au    7 B3g  19 B2u                
  1.806   1.860   1.866   1.910   2.008   2.113   2.114   2.143
 16 B3u  21 Ag   20 B2u  17 B3u  22 Ag   18 B3u   5 Au   16 B1g                
  2.221   2.293   2.416   2.531   2.578   2.584   2.628   2.637
  8 B3g  21 B2u  17 B1g  22 B2u  18 B1g   9 B1u  23 B2u  23 Ag                 
  2.662   2.699   2.791   2.946   2.990   3.106   3.135   3.137
  6 B2g   9 B3g  19 B3u  24 Ag    6 Au   10 B1u  24 B2u  25 Ag                 
  3.155   3.173   3.222   3.270   3.324   3.347   3.603   3.632
 20 B3u   7 B2g  19 B1g   7 Au   10 B3g  20 B1g  26 Ag   21 B3u                
  3.763   3.809   3.838   3.861   3.865   4.324   4.335   4.344
 25 B2u  22 B3u  21 B1g  26 B2u  27 Ag   11 B1u  22 B1g  27 B2u                
  4.412   4.697   5.036   5.258   5.794  24.709  24.834  25.144
 11 B3g  28 Ag   28 B2u  23 B3u  23 B1g  29 Ag   24 B3u  24 B1g                
 25.160  36.887  37.060
 29 B2u  30 Ag   30 B2u                                                        
 

--------------------------------------------------------------------------------
                                   HF Summary                                   
--------------------------------------------------------------------------------
  Energy:                                                 -262.7338697771 a.u.
  Dip. moment [a.u.]:                  [   0.000000,   -0.000000,    0.000000]
  Total dipole [Debye]:                                               0.000000
  <r^2> [a.u.]:                        [ 191.322291,  195.776563,   27.703587]
  Total <r^2> [a.u.]:                                               414.802441
--------------------------------------------------------------------------------

--------------------------------------------------------------------------------
                                 MP(2) Summary                                  
--------------------------------------------------------------------------------
  Energy contribution:                                      -0.9557358580 a.u.
  Total energy:                                           -263.6896056351 a.u.
  Dip. moment [a.u.]:                  [   0.000000,    0.000000,    0.000000]
  Total dipole [Debye]:                                               0.000000
  <r^2> [a.u.]:                        [ 191.320068,  195.501667,   27.351727]
  Total <r^2> [a.u.]:                                               414.173462
--------------------------------------------------------------------------------
  Starting Davidson ... 
--------------------------------------------------------------------------------
   It NVec Conv  Avg. Norm  Max. Norm  Conv. states           Remark
--------------------------------------------------------------------------------
         6    0  5.180e-01  1.271e+00 15.5505 n n n n n n     Guess.
    1   12    0  1.459e-01  3.658e-01 15.1874 n n n n n n     
    2   18    0  2.978e-02  8.387e-02 15.1673 n n n n n n     
    3   24    0  1.994e-02  6.338e-02 15.1653 n n n n n n     
    4   30    0  1.270e-02  4.740e-02 15.1643 n n n n n n     
    5   12    0  6.861e-03  2.375e-02 15.1640 n n n n n n     Subspace collapsed.
    6   18    0  4.918e-03  1.811e-02 15.1639 n n n n n n     
    7   24    0  3.748e-03  1.527e-02 15.1639 n n n n n n     
    8   30    0  2.248e-03  9.661e-03 15.1639 n n n n n n     
    9   12    0  8.282e-04  3.514e-03 15.1639 n n n n n n     Subspace collapsed.
   10   18    0  4.321e-04  1.806e-03 15.1639 n n n n n n     
   11   24    0  2.241e-04  9.171e-04 15.1639 n n n n n n     
   12   30    0  2.331e-04  1.044e-03 15.1639 n n n n n n     
   13   12    0  1.033e-04  4.565e-04 15.1639 n n n n n n     Subspace collapsed.
   14   18    0  1.174e-04  5.231e-04 15.1639 n n n n n n     
   15   24    0  7.256e-05  3.373e-04 15.1639 n n n n n n     
   16   30    0  5.629e-05  2.660e-04 15.1639 n n n n n n     
   17   12    0  2.219e-05  1.030e-04 15.1639 n n n n n n     Subspace collapsed.
   18   18    0  1.222e-05  5.629e-05 15.1639 n n n n n n     
   19   24    0  5.775e-06  2.638e-05 15.1639 n n n n n n     
   20   30    0  6.601e-06  3.108e-05 15.1639 n n n n n n     
   21   12    2  3.225e-06  1.534e-05 15.1639 y y n n n n     Subspace collapsed.
   22   18    2  3.706e-06  1.825e-05 15.1639 y y n n n n     
   23   24    2  2.067e-06  1.025e-05 15.1639 y y n n n n     
   24   30    3  1.536e-06  7.416e-06 15.1639 y y n n y n     
   25   12    3  6.301e-07  3.218e-06 15.1639 y y n n y n     Subspace collapsed.
   26   18    4  3.767e-07  1.874e-06 15.1639 y y n n y y     
   27   24    6  1.748e-07  8.231e-07 15.1639 y y y y y y     Converged.
--------------------------------------------------------------------------------
  Davidson Summary: 
 ------------------------------------------------------------
  State  0: excitation energy =  15.1639 a.u.   (converged)
  State  1: excitation energy =  15.1647 a.u.   (converged)
  State  2: excitation energy =  15.2261 a.u.   (converged)
  State  3: excitation energy =  15.2289 a.u.   (converged)
  State  4: excitation energy =  15.2657 a.u.   (converged)
  State  5: excitation energy =  15.2658 a.u.   (converged)
 ------------------------------------------------------------

  Starting Davidson ... 
--------------------------------------------------------------------------------
   It NVec Conv  Avg. Norm  Max. Norm  Conv. states           Remark
--------------------------------------------------------------------------------
         6    0  5.204e-01  1.277e+00 15.5498 n n n n n n     Guess.
    1   12    0  1.540e-01  4.209e-01 15.1754 n n n n n n     
    2   18    0  3.117e-02  9.955e-02 15.1527 n n n n n n     
    3   24    0  2.164e-02  6.157e-02 15.1505 n n n n n n     
    4   30    0  1.165e-02  3.209e-02 15.1488 n n n n n n     
    5   12    0  7.324e-03  2.010e-02 15.1484 n n n n n n     Subspace collapsed.
    6   18    0  5.244e-03  1.756e-02 15.1483 n n n n n n     
    7   24    0  4.039e-03  1.238e-02 15.1482 n n n n n n     
    8   30    0  2.592e-03  8.832e-03 15.1482 n n n n n n     
    9   12    0  9.313e-04  3.169e-03 15.1482 n n n n n n     Subspace collapsed.
   10   18    0  6.769e-04  2.428e-03 15.1482 n n n n n n     
   11   24    0  4.204e-04  1.546e-03 15.1482 n n n n n n     
   12   30    0  3.314e-04  1.237e-03 15.1482 n n n n n n     
   13   12    0  2.439e-04  9.448e-04 15.1482 n n n n n n     Subspace collapsed.
   14   18    0  2.974e-04  1.162e-03 15.1482 n n n n n n     
   15   24    0  1.784e-04  7.198e-04 15.1482 n n n n n n     
   16   30    0  1.682e-04  6.920e-04 15.1482 n n n n n n     
   17   12    0  6.640e-05  2.754e-04 15.1482 n n n n n n     Subspace collapsed.
   18   18    0  5.959e-05  2.424e-04 15.1482 n n n n n n     
   19   24    0  2.805e-05  1.169e-04 15.1482 n n n n n n     
   20   30    0  2.685e-05  1.097e-04 15.1482 n n n n n n     
   21   12    0  1.468e-05  6.291e-05 15.1482 n n n n n n     Subspace collapsed.
   22   18    0  2.906e-05  1.321e-04 15.1482 n n n n n n     
   23   24    2  1.464e-05  6.391e-05 15.1482 y y n n n n     
   24   30    2  1.255e-05  5.636e-05 15.1482 y y n n n n     
   25   12    2  6.622e-06  2.925e-05 15.1482 y y n n n n     Subspace collapsed.
   26   18    2  6.352e-06  2.893e-05 15.1482 y y n n n n     
   27   24    3  2.052e-06  9.277e-06 15.1482 y y n y n n     
   28   30    2  2.656e-06  1.186e-05 15.1482 y y n n n n     
   29   12    4  1.400e-06  6.185e-06 15.1482 y y y y n n     Subspace collapsed.
   30   18    3  2.446e-06  1.181e-05 15.1482 y y n y n n     
   31   24    4  1.409e-06  6.986e-06 15.1482 y y y y n n     
   32   30    4  1.153e-06  5.632e-06 15.1482 y y y y n n     
   33   12    4  6.856e-07  3.358e-06 15.1482 y y y y n n     Subspace collapsed.
   34   18    4  5.809e-07  2.632e-06 15.1482 y y y y n n     
   35   24    6  2.110e-07  9.693e-07 15.1482 y y y y y y     Converged.
--------------------------------------------------------------------------------
  Davidson Summary: 
 ------------------------------------------------------------
  State  0: excitation energy =  15.1482 a.u.   (converged)
  State  1: excitation energy =  15.1483 a.u.   (converged)
  State  2: excitation energy =  15.2264 a.u.   (converged)
  State  3: excitation energy =  15.2278 a.u.   (converged)
  State  4: excitation energy =  15.2533 a.u.   (converged)
  State  5: excitation energy =  15.2536 a.u.   (converged)
 ------------------------------------------------------------

  Starting Davidson ... 
--------------------------------------------------------------------------------
   It NVec Conv  Avg. Norm  Max. Norm  Conv. states           Remark
--------------------------------------------------------------------------------
         6    0  5.360e-01  1.335e+00 15.4831 n n n n n n     Guess.
    1   12    0  2.565e-01  9.595e-01 15.0715 n n n n n n     
    2   18    0  1.880e-01  8.027e-01 15.0484 n n n n n n     
    3   24    0  1.674e-01  7.468e-01 15.0476 n n n n n n     
    4   30    0  1.119e-01  4.957e-01 15.0475 n n n n n n     
    5   12    0  1.028e-01  5.021e-01 15.0475 n n n n n n     Subspace collapsed.
    6   18    0  1.144e-01  5.958e-01 15.0475 n n n n n n     
    7   24    0  8.341e-02  3.711e-01 15.0475 n n n n n n     
    8   30    0  6.342e-02  3.142e-01 15.0475 n n n n n n     
    9   12    0  4.248e-02  2.024e-01 15.0475 n n n n n n     Subspace collapsed.
   10   18    0  2.492e-02  1.312e-01 15.0475 n n n n n n     
   11   24    1  1.833e-02  1.041e-01 15.0475 y n n n n n     
   12   30    2  4.640e-02  2.779e-01 15.0475 y y n n n n     
   13   12    3  3.044e-02  1.825e-01 15.0475 y y n y n n     Subspace collapsed.
   14   18    3  1.951e-02  1.169e-01 15.0475 y y n y n n     
   15   24    3  1.005e-02  6.019e-02 15.0475 y y n y n n     
   16   30    4  5.456e-03  3.269e-02 15.0475 y y y y n n     
   17   12    4  3.145e-03  1.885e-02 15.0475 y y y y n n     Subspace collapsed.
   18   18    4  1.472e-03  8.780e-03 15.0475 y y y y n n     
   19   24    4  8.431e-04  5.037e-03 15.0475 y y y y n n     
   20   30    4  4.443e-04  2.641e-03 15.0475 y y y y n n     
   21   12    4  2.933e-04  1.752e-03 15.0475 y y y y n n     Subspace collapsed.
   22   18    4  1.373e-04  8.030e-04 15.0475 y y y y n n     
   23   24    4  8.217e-05  4.792e-04 15.0475 y y y y n n     
   24   28    4  5.082e-05  2.915e-04 15.0475 y y y y n n     
   25   30    4  2.764e-05  1.463e-04 15.0475 y y y y n n     
   26   10    4  1.447e-05  7.627e-05 15.0475 y y y y n n     Subspace collapsed.
   27   14    4  1.251e-05  6.054e-05 15.0475 y y y y n n     
   28   17    4  5.293e-06  2.251e-05 15.0475 y y y y n n     
   29   20    4  4.443e-06  2.325e-05 15.0475 y y y y n n     
   30   23    4  3.106e-06  1.775e-05 15.0475 y y y y n n     
   31   26    4  1.055e-06  5.826e-06 15.0475 y y y y n n     
   32   28    4  6.585e-07  3.702e-06 15.0475 y y y y n n     
   33   30    5  2.673e-07  1.540e-06 15.0475 y y y y y n     
   34    8    6  1.179e-07  6.749e-07 15.0475 y y y y y y     Converged.
--------------------------------------------------------------------------------
  Davidson Summary: 
 ------------------------------------------------------------
  State  0: excitation energy =  15.0475 a.u.   (converged)
  State  1: excitation energy =  15.0512 a.u.   (converged)
  State  2: excitation energy =  15.2668 a.u.   (converged)
  State  3: excitation energy =  15.2670 a.u.   (converged)
  State  4: excitation energy =  15.3967 a.u.   (converged)
  State  5: excitation energy =  15.4262 a.u.   (converged)
 ------------------------------------------------------------

  Starting Davidson ... 
--------------------------------------------------------------------------------
   It NVec Conv  Avg. Norm  Max. Norm  Conv. states           Remark
--------------------------------------------------------------------------------
         6    0  5.201e-01  1.281e+00 15.3229 n n n n n n     Guess.
    1   12    0  1.738e-01  5.568e-01 14.9873 n n n n n n     
    2   18    0  3.812e-02  1.472e-01 14.9692 n n n n n n     
    3   24    0  1.407e-02  4.596e-02 14.9675 n n n n n n     
    4   30    0  4.662e-03  1.742e-02 14.9673 n n n n n n     
    5   12    0  2.187e-03  9.009e-03 14.9673 n n n n n n     Subspace collapsed.
    6   18    0  1.773e-03  8.591e-03 14.9673 n n n n n n     
    7   24    0  1.129e-03  5.286e-03 14.9673 n n n n n n     
    8   30    0  5.127e-04  2.446e-03 14.9673 n n n n n n     
    9   12    0  2.905e-04  1.325e-03 14.9673 n n n n n n     Subspace collapsed.
   10   18    0  1.946e-04  9.542e-04 14.9673 n n n n n n     
   11   24    0  1.192e-04  5.687e-04 14.9673 n n n n n n     
   12   30    2  6.514e-05  3.191e-04 14.9673 y y n n n n     
   13   12    2  3.126e-05  1.624e-04 14.9673 y y n n n n     Subspace collapsed.
   14   18    2  3.055e-05  1.645e-04 14.9673 y y n n n n     
   15   24    4  1.707e-05  9.127e-05 14.9673 y y y y n n     
   16   30    4  1.292e-05  6.934e-05 14.9673 y y y y n n     
   17   12    4  6.255e-06  3.271e-05 14.9673 y y y y n n     Subspace collapsed.
   18   18    4  5.338e-06  2.840e-05 14.9673 y y y y n n     
   19   24    4  3.045e-06  1.644e-05 14.9673 y y y y n n     
   20   30    4  1.911e-06  1.055e-05 14.9673 y y y y n n     
   21   12    4  9.682e-07  5.578e-06 14.9673 y y y y n n     Subspace collapsed.
   22   18    4  9.556e-07  5.520e-06 14.9673 y y y y n n     
   23   24    5  5.666e-07  3.290e-06 14.9673 y y y y y n     
   24   30    5  3.888e-07  2.256e-06 14.9673 y y y y y n     
   25   11    5  1.997e-07  1.160e-06 14.9673 y y y y y n     Subspace collapsed.
   26   15    6  1.641e-07  9.667e-07 14.9673 y y y y y y     Converged.
--------------------------------------------------------------------------------
  Davidson Summary: 
 ------------------------------------------------------------
  State  0: excitation energy =  14.9673 a.u.   (converged)
  State  1: excitation energy =  14.9942 a.u.   (converged)
  State  2: excitation energy =  15.1685 a.u.   (converged)
  State  3: excitation energy =  15.1689 a.u.   (converged)
  State  4: excitation energy =  15.3143 a.u.   (converged)
  State  5: excitation energy =  15.3189 a.u.   (converged)
 ------------------------------------------------------------

  Starting Davidson ... 
--------------------------------------------------------------------------------
   It NVec Conv  Avg. Norm  Max. Norm  Conv. states           Remark
--------------------------------------------------------------------------------
         6    0  5.328e-01  1.320e+00 15.5982 n n n n n n     Guess.
    1   12    0  3.303e-01  1.048e+00 15.2467 n n n n n n     
    2   18    0  2.451e-01  7.654e-01 15.2092 n n n n n n     
    3   24    0  2.124e-01  9.380e-01 15.2058 n n n n n n     
    4   30    0  1.476e-01  5.179e-01 15.2054 n n n n n n     
    5   12    0  1.093e-01  3.772e-01 15.2054 n n n n n n     Subspace collapsed.
    6   18    0  1.582e-01  7.054e-01 15.2054 n n n n n n     
    7   24    0  6.270e-02  2.277e-01 15.2054 n n n n n n     
    8   30    0  2.808e-02  1.228e-01 15.2054 n n n n n n     
    9   12    0  1.309e-02  5.276e-02 15.2054 n n n n n n     Subspace collapsed.
   10   18    0  1.169e-02  5.207e-02 15.2054 n n n n n n     
   11   24    0  6.175e-03  2.629e-02 15.2054 n n n n n n     
   12   30    0  4.201e-03  1.879e-02 15.2054 n n n n n n     
   13   12    0  2.339e-03  1.138e-02 15.2054 n n n n n n     Subspace collapsed.
   14   18    0  2.659e-03  1.141e-02 15.2054 n n n n n n     
   15   24    1  1.748e-03  7.791e-03 15.2054 y n n n n n     
   16   30    2  1.154e-03  5.682e-03 15.2054 y y n n n n     
   17   12    2  6.608e-04  3.268e-03 15.2054 y y n n n n     Subspace collapsed.
   18   18    2  1.005e-03  5.336e-03 15.2054 y y n n n n     
   19   24    2  6.725e-04  2.908e-03 15.2054 y y n n n n     
   20   30    3  6.991e-04  3.469e-03 15.2054 y y y n n n     
   21   12    3  3.192e-04  1.591e-03 15.2054 y y y n n n     Subspace collapsed.
   22   18    3  4.219e-04  2.359e-03 15.2054 y y y n n n     
   23   24    4  3.755e-04  2.068e-03 15.2054 y y y y n n     
   24   30    4  4.073e-04  2.275e-03 15.2054 y y y y n n     
   25   12    4  2.472e-04  1.407e-03 15.2054 y y y y n n     Subspace collapsed.
   26   18    4  3.438e-04  1.975e-03 15.2054 y y y y n n     
   27   24    4  2.840e-04  1.625e-03 15.2054 y y y y n n     
   28   30    4  5.589e-04  3.310e-03 15.2054 y y y y n n     
   29   12    4  2.577e-04  1.527e-03 15.2054 y y y y n n     Subspace collapsed.
   30   17    4  3.768e-04  2.242e-03 15.2054 y y y y n n     
   31   22    4  3.749e-04  2.233e-03 15.2054 y y y y n n     
   32   27    4  3.381e-04  2.019e-03 15.2054 y y y y n n     
   33   30    4  9.328e-04  5.591e-03 15.2054 y y y y n n     
   34   10    4  3.895e-04  2.335e-03 15.2054 y y y y n n     Subspace collapsed.
   35   14    4  4.831e-04  2.896e-03 15.2054 y y y y n n     
   36   17    4  5.851e-04  3.508e-03 15.2054 y y y y n n     
   37   20    4  3.848e-04  2.308e-03 15.2054 y y y y n n     
   38   23    4  5.840e-04  3.503e-03 15.2054 y y y y n n     
   39   26    4  1.768e-03  1.061e-02 15.2054 y y y y n n     
   40   26    4  1.768e-03  1.061e-02 15.2054 y y y y n n     
   41   30    4  1.846e-03  1.108e-02 15.2054 y y y y n n     
   42    8    4  7.995e-04  4.797e-03 15.2054 y y y y n n     Subspace collapsed.
   43   10    4  8.607e-04  5.164e-03 15.2054 y y y y n n     
   44   12    4  1.026e-03  6.159e-03 15.2054 y y y y n n     
   45   14    4  9.478e-04  5.687e-03 15.2054 y y y y n n     
   46   16    4  1.135e-03  6.811e-03 15.2054 y y y y n n     
   47   18    4  5.497e-03  3.298e-02 15.2054 y y y y n n     
   48   20    4  1.319e-02  7.917e-02 15.2054 y y y y n n     
   49   22    4  7.626e-03  4.576e-02 15.2054 y y y y n n     
   50   24    4  5.208e-03  3.125e-02 15.2054 y y y y n n     
   51   26    4  3.793e-03  2.276e-02 15.2054 y y y y n n     
   52   28    4  2.293e-03  1.376e-02 15.2054 y y y y n n     
   53   30    4  1.513e-03  9.079e-03 15.2054 y y y y n n     
   54    8    4  9.662e-04  5.797e-03 15.2054 y y y y n n     Subspace collapsed.
   55   10    5  1.331e-03  7.983e-03 15.2054 y y y y y n     
   56   12    5  1.308e-03  7.849e-03 15.2054 y y y y y n     
   57   14    5  1.070e-03  6.418e-03 15.2054 y y y y y n     
   58   16    5  8.178e-04  4.907e-03 15.2054 y y y y y n     
   59   18    5  5.042e-04  3.025e-03 15.2054 y y y y y n     
--------------------------------------------------------------------------------
  Davidson Summary: 
 ------------------------------------------------------------
  State  0: excitation energy =  15.2054 a.u.   (converged)
  State  1: excitation energy =  15.2056 a.u.   (converged)
  State  2: excitation energy =  15.2742 a.u.   (converged)
  State  3: excitation energy =  15.2745 a.u.   (converged)
  State  4: excitation energy =  15.5045 a.u.   (converged)
  State  5: excitation energy =  15.5146 a.u.   (not converged)
 ------------------------------------------------------------

  Starting Davidson ... 
--------------------------------------------------------------------------------
   It NVec Conv  Avg. Norm  Max. Norm  Conv. states           Remark
--------------------------------------------------------------------------------
         6    0  5.241e-01  1.311e+00 15.5621 n n n n n n     Guess.
    1   12    0  2.558e-01  8.198e-01 15.3386 n n n n n n     
    2   18    0  9.797e-02  3.202e-01 15.2183 n n n n n n     
    3   24    0  3.236e-02  1.135e-01 15.1746 n n n n n n     
    4   30    0  1.911e-02  5.546e-02 15.1651 n n n n n n     
    5   12    0  9.270e-03  3.065e-02 15.1636 n n n n n n     Subspace collapsed.
    6   18    0  1.416e-02  5.756e-02 15.1631 n n n n n n     
    7   24    0  1.673e-02  7.664e-02 15.1630 n n n n n n     
    8   30    0  2.392e-02  1.277e-01 15.1630 n n n n n n     
    9   12    0  1.194e-02  6.822e-02 15.1630 n n n n n n     Subspace collapsed.
   10   18    0  7.852e-03  4.391e-02 15.1630 n n n n n n     
   11   24    0  3.055e-03  1.604e-02 15.1630 n n n n n n     
   12   30    0  2.858e-03  1.329e-02 15.1630 n n n n n n     
   13   12    0  1.906e-03  9.511e-03 15.1630 n n n n n n     Subspace collapsed.
   14   18    0  4.331e-03  2.349e-02 15.1630 n n n n n n     
   15   24    0  3.289e-03  1.649e-02 15.1630 n n n n n n     
   16   30    0  3.239e-03  1.409e-02 15.1630 n n n n n n     
   17   12    0  1.583e-03  7.625e-03 15.1630 n n n n n n     Subspace collapsed.
   18   18    2  1.181e-03  5.019e-03 15.1630 y y n n n n     
   19   24    3  6.062e-04  3.201e-03 15.1630 y y y n n n     
   20   30    4  7.078e-04  3.659e-03 15.1630 y y y y n n     
   21   12    4  4.422e-04  2.306e-03 15.1630 y y y y n n     Subspace collapsed.
   22   18    4  6.414e-04  2.898e-03 15.1630 y y y y n n     
   23   24    4  6.161e-04  3.090e-03 15.1630 y y y y n n     
   24   30    4  8.521e-04  4.724e-03 15.1630 y y y y n n     
   25   12    4  4.030e-04  2.215e-03 15.1630 y y y y n n     Subspace collapsed.
   26   18    4  3.077e-04  1.754e-03 15.1630 y y y y n n     
   27   24    4  2.066e-04  1.215e-03 15.1630 y y y y n n     
   28   30    4  3.295e-04  1.955e-03 15.1630 y y y y n n     
   29   12    4  1.719e-04  1.013e-03 15.1630 y y y y n n     Subspace collapsed.
   30   18    4  2.377e-04  1.376e-03 15.1630 y y y y n n     
   31   24    4  2.015e-04  1.164e-03 15.1630 y y y y n n     
   32   30    4  2.828e-04  1.678e-03 15.1630 y y y y n n     
   33   12    4  1.486e-04  8.812e-04 15.1630 y y y y n n     Subspace collapsed.
   34   18    4  1.348e-04  8.020e-04 15.1630 y y y y n n     
   35   24    4  9.123e-05  5.458e-04 15.1630 y y y y n n     
   36   30    4  1.413e-04  8.470e-04 15.1630 y y y y n n     
   37   11    4  8.146e-05  4.878e-04 15.1630 y y y y n n     Subspace collapsed.
   38   16    4  1.135e-04  6.774e-04 15.1630 y y y y n n     
   39   20    4  9.288e-05  5.544e-04 15.1630 y y y y n n     
   40   24    4  1.138e-04  6.814e-04 15.1630 y y y y n n     
   41   27    4  1.728e-04  1.037e-03 15.1630 y y y y n n     
   42   29    4  5.222e-05  3.131e-04 15.1630 y y y y n n     
   43   30    4  5.218e-05  3.131e-04 15.1630 y y y y n n     
   44    8    4  2.855e-05  1.713e-04 15.1630 y y y y n n     Subspace collapsed.
   45   10    4  2.733e-05  1.640e-04 15.1630 y y y y n n     
   46   12    5  1.157e-05  6.939e-05 15.1630 y y y y y n     
   47   14    4  1.367e-05  8.199e-05 15.1630 y y y y n n     
   48   16    4  1.183e-05  7.098e-05 15.1630 y y y y n n     
   49   18    5  1.215e-05  7.288e-05 15.1630 y y y y y n     
   50   20    5  1.111e-05  6.667e-05 15.1630 y y y y y n     
   51   22    5  5.819e-06  3.491e-05 15.1630 y y y y y n     
   52   24    5  4.248e-06  2.549e-05 15.1630 y y y y y n     
   53   26    5  2.812e-06  1.687e-05 15.1630 y y y y y n     
   54   28    5  3.101e-06  1.861e-05 15.1630 y y y y y n     
   55   30    5  3.865e-06  2.319e-05 15.1630 y y y y y n     
   56    8    5  1.962e-06  1.177e-05 15.1630 y y y y y n     Subspace collapsed.
   57   10    5  1.878e-06  1.127e-05 15.1630 y y y y y n     
   58   12    5  1.724e-06  1.034e-05 15.1630 y y y y y n     
   59   14    5  2.268e-06  1.361e-05 15.1630 y y y y y n     
--------------------------------------------------------------------------------
  Davidson Summary: 
 ------------------------------------------------------------
  State  0: excitation energy =  15.1630 a.u.   (converged)
  State  1: excitation energy =  15.1764 a.u.   (converged)
  State  2: excitation energy =  15.2220 a.u.   (converged)
  State  3: excitation energy =  15.2222 a.u.   (converged)
  State  4: excitation energy =  15.3404 a.u.   (converged)
  State  5: excitation energy =  15.3522 a.u.   (not converged)
 ------------------------------------------------------------

  Starting Davidson ... 
--------------------------------------------------------------------------------
   It NVec Conv  Avg. Norm  Max. Norm  Conv. states           Remark
--------------------------------------------------------------------------------
         6    0  5.199e-01  1.275e+00 15.5188 n n n n n n     Guess.
    1   12    0  1.568e-01  4.023e-01 15.1500 n n n n n n     
    2   18    0  3.449e-02  1.026e-01 15.1282 n n n n n n     
    3   24    0  2.509e-02  7.529e-02 15.1253 n n n n n n     
    4   30    0  1.610e-02  4.869e-02 15.1231 n n n n n n     
    5   12    0  7.921e-03  2.180e-02 15.1226 n n n n n n     Subspace collapsed.
    6   18    0  6.008e-03  1.768e-02 15.1225 n n n n n n     
    7   24    0  4.595e-03  1.519e-02 15.1224 n n n n n n     
    8   30    0  3.235e-03  1.230e-02 15.1223 n n n n n n     
    9   12    0  1.114e-03  4.333e-03 15.1223 n n n n n n     Subspace collapsed.
   10   18    0  7.612e-04  3.298e-03 15.1223 n n n n n n     
   11   24    0  3.848e-04  1.716e-03 15.1223 n n n n n n     
   12   30    0  4.127e-04  1.908e-03 15.1223 n n n n n n     
   13   12    0  1.850e-04  8.469e-04 15.1223 n n n n n n     Subspace collapsed.
   14   18    0  2.436e-04  1.173e-03 15.1223 n n n n n n     
   15   24    0  1.521e-04  7.570e-04 15.1223 n n n n n n     
   16   30    0  1.510e-04  7.814e-04 15.1223 n n n n n n     
   17   12    0  4.814e-05  2.497e-04 15.1223 n n n n n n     Subspace collapsed.
   18   18    0  4.384e-05  2.356e-04 15.1223 n n n n n n     
   19   24    0  1.953e-05  1.057e-04 15.1223 n n n n n n     
   20   30    0  2.233e-05  1.221e-04 15.1223 n n n n n n     
   21   12    0  1.005e-05  5.516e-05 15.1223 n n n n n n     Subspace collapsed.
   22   18    0  1.782e-05  9.848e-05 15.1223 n n n n n n     
   23   24    1  8.622e-06  4.783e-05 15.1223 n y n n n n     
   24   30    1  8.068e-06  4.513e-05 15.1223 n y n n n n     
   25   12    3  3.403e-06  1.951e-05 15.1223 y y n y n n     Subspace collapsed.
   26   18    3  3.329e-06  1.917e-05 15.1223 y y n y n n     
   27   24    4  1.265e-06  7.256e-06 15.1223 y y y y n n     
   28   30    4  1.545e-06  8.935e-06 15.1223 y y y y n n     
   29   12    5  6.763e-07  3.930e-06 15.1223 y y y y n y     Subspace collapsed.
   30   18    4  1.062e-06  6.168e-06 15.1223 y y y y n n     
   31   24    5  5.928e-07  3.471e-06 15.1223 y y y y n y     
   32   30    5  5.479e-07  3.217e-06 15.1223 y y y y n y     
   33   12    5  2.725e-07  1.609e-06 15.1223 y y y y n y     Subspace collapsed.
   34   18    5  2.108e-07  1.245e-06 15.1223 y y y y n y     
   35   24    6  8.305e-08  4.907e-07 15.1223 y y y y y y     Converged.
--------------------------------------------------------------------------------
  Davidson Summary: 
 ------------------------------------------------------------
  State  0: excitation energy =  15.1223 a.u.   (converged)
  State  1: excitation energy =  15.1236 a.u.   (converged)
  State  2: excitation energy =  15.1640 a.u.   (converged)
  State  3: excitation energy =  15.1675 a.u.   (converged)
  State  4: excitation energy =  15.1954 a.u.   (converged)
  State  5: excitation energy =  15.1971 a.u.   (converged)
 ------------------------------------------------------------

  Starting Davidson ... 
--------------------------------------------------------------------------------
   It NVec Conv  Avg. Norm  Max. Norm  Conv. states           Remark
--------------------------------------------------------------------------------
         6    0  5.186e-01  1.273e+00 15.5773 n n n n n n     Guess.
    1   12    0  1.412e-01  3.519e-01 15.2075 n n n n n n     
    2   18    0  2.576e-02  6.980e-02 15.1870 n n n n n n     
    3   24    0  1.917e-02  5.916e-02 15.1849 n n n n n n     
    4   30    0  1.106e-02  3.428e-02 15.1832 n n n n n n     
    5   12    0  7.562e-03  2.009e-02 15.1827 n n n n n n     Subspace collapsed.
    6   18    0  6.575e-03  2.300e-02 15.1825 n n n n n n     
    7   24    0  5.316e-03  2.064e-02 15.1823 n n n n n n     
    8   30    0  1.033e-02  5.005e-02 15.1823 n n n n n n     
    9   12    0  3.648e-03  1.760e-02 15.1823 n n n n n n     Subspace collapsed.
   10   18    0  2.413e-03  1.186e-02 15.1823 n n n n n n     
   11   24    0  2.403e-03  1.159e-02 15.1823 n n n n n n     
   12   30    0  3.215e-03  1.574e-02 15.1823 n n n n n n     
   13   12    0  1.563e-03  7.549e-03 15.1823 n n n n n n     Subspace collapsed.
   14   18    0  2.449e-03  1.200e-02 15.1823 n n n n n n     
   15   24    0  3.166e-03  1.564e-02 15.1823 n n n n n n     
   16   30    0  7.702e-03  3.877e-02 15.1823 n n n n n n     
   17   12    0  2.612e-03  1.283e-02 15.1823 n n n n n n     Subspace collapsed.
   18   18    0  2.317e-03  1.123e-02 15.1823 n n n n n n     
   19   24    0  1.173e-03  5.606e-03 15.1823 n n n n n n     
   20   30    0  1.566e-03  7.586e-03 15.1823 n n n n n n     
   21   12    1  7.565e-04  3.691e-03 15.1823 n y n n n n     Subspace collapsed.
   22   18    0  2.107e-03  1.048e-02 15.1823 n n n n n n     
   23   24    2  1.694e-03  8.010e-03 15.1823 y y n n n n     
   24   30    2  3.858e-03  1.808e-02 15.1823 y y n n n n     
   25   12    2  1.411e-03  6.446e-03 15.1823 y y n n n n     Subspace collapsed.
   26   18    2  1.206e-03  5.874e-03 15.1823 y y n n n n     
   27   24    2  4.842e-04  2.133e-03 15.1823 y y n n n n     
   28   30    2  7.139e-04  3.080e-03 15.1823 y y n n n n     
   29   12    2  3.645e-04  1.628e-03 15.1823 y y n n n n     Subspace collapsed.
   30   18    2  9.944e-04  4.515e-03 15.1823 y y n n n n     
   31   24    2  9.517e-04  4.226e-03 15.1823 y y n n n n     
   32   30    2  1.799e-03  8.378e-03 15.1823 y y n n n n     
   33   12    4  7.364e-04  3.365e-03 15.1823 y y y y n n     Subspace collapsed.
   34   18    4  5.499e-04  2.510e-03 15.1823 y y y y n n     
   35   24    4  2.925e-04  1.311e-03 15.1823 y y y y n n     
   36   30    4  3.460e-04  1.690e-03 15.1823 y y y y n n     
   37   12    4  2.047e-04  9.594e-04 15.1823 y y y y n n     Subspace collapsed.
   38   18    4  4.472e-04  2.088e-03 15.1823 y y y y n n     
   39   24    4  4.571e-04  2.048e-03 15.1823 y y y y n n     
   40   30    4  7.938e-04  3.615e-03 15.1823 y y y y n n     
   41   12    4  3.784e-04  1.864e-03 15.1823 y y y y n n     Subspace collapsed.
   42   18    4  2.663e-04  1.320e-03 15.1823 y y y y n n     
   43   24    4  1.239e-04  5.983e-04 15.1823 y y y y n n     
   44   30    4  1.662e-04  8.464e-04 15.1823 y y y y n n     
   45   10    4  9.384e-05  4.610e-04 15.1823 y y y y n n     Subspace collapsed.
   46   14    4  2.464e-04  1.236e-03 15.1823 y y y y n n     
   47   18    4  2.125e-04  1.041e-03 15.1823 y y y y n n     
   48   22    4  3.701e-04  1.789e-03 15.1823 y y y y n n     
   49   26    4  2.780e-04  1.533e-03 15.1823 y y y y n n     
   50   30    4  7.194e-05  3.576e-04 15.1823 y y y y n n     
   51   10    4  3.682e-05  1.661e-04 15.1823 y y y y n n     Subspace collapsed.
   52   14    4  2.413e-05  1.132e-04 15.1823 y y y y n n     
   53   18    4  1.182e-05  5.387e-05 15.1823 y y y y n n     
   54   22    4  8.016e-06  3.649e-05 15.1823 y y y y n n     
   55   26    4  4.733e-06  2.494e-05 15.1823 y y y y n n     
   56   30    4  2.935e-06  1.302e-05 15.1823 y y y y n n     
   57   10    4  2.201e-06  1.098e-05 15.1823 y y y y n n     Subspace collapsed.
   58   14    4  2.137e-06  9.530e-06 15.1823 y y y y n n     
   59   18    4  1.984e-06  9.259e-06 15.1823 y y y y n n     
--------------------------------------------------------------------------------
  Davidson Summary: 
 ------------------------------------------------------------
  State  0: excitation energy =  15.1823 a.u.   (converged)
  State  1: excitation energy =  15.1824 a.u.   (converged)
  State  2: excitation energy =  15.2832 a.u.   (converged)
  State  3: excitation energy =  15.2834 a.u.   (converged)
  State  4: excitation energy =  15.3260 a.u.   (not converged)
  State  5: excitation energy =  15.3280 a.u.   (not converged)
 ------------------------------------------------------------


--------------------------------------------------------------------------------
                             Excited State Summary
--------------------------------------------------------------------------------

  Excited state  1 (B3g)                                           [converged]
  ----------------------------------------------------------------------------
  Term symbol:  1 (-) B3g                                   R^2 =  1.27157e-12

  Total energy:                                           -248.7223236459 a.u.
  Excitation energy:                                             407.280456 eV

  Osc. strength:                                                      0.000000
  Trans. dip. moment [a.u.]:           [   0.000000,    0.000000,   -0.000000]
  <i|r^2|0> [a.u.]:                    [  -0.000000,   -0.000000,   -0.000000]

  V1^2 = 0.8628, V2^2 = 0.1372

  Important amplitudes:
      core i       occ j       vir a        vir b           v   
    -------------------------------------------------------------
     1 (B2u) B                2 (B1u) B                   0.5947
     1 (B2u) A                2 (B1u) A                  -0.5947
    -------------------------------------------------------------
  ----------------------------------------------------------------------------


  Excited state  2 (B3g)                                           [converged]
  ----------------------------------------------------------------------------
  Term symbol:  2 (-) B3g                                   R^2 =  7.64716e-13

  Total energy:                                           -248.6953654812 a.u.
  Excitation energy:                                             408.014025 eV

  Osc. strength:                                                      0.000000
  Trans. dip. moment [a.u.]:           [   0.000000,   -0.000000,    0.000000]
  <i|r^2|0> [a.u.]:                    [  -0.000000,    0.000000,   -0.000000]

  V1^2 = 0.8616, V2^2 = 0.1384

  Important amplitudes:
      core i       occ j       vir a        vir b           v   
    -------------------------------------------------------------
     1 (B2u) A                2 (B1u) A                   0.5994
     1 (B2u) B                2 (B1u) B                   0.5994
    -------------------------------------------------------------
  ----------------------------------------------------------------------------


  Excited state  3 (B2g)                                           [converged]
  ----------------------------------------------------------------------------
  Term symbol:  1 (-) B2g                                   R^2 =  3.57023e-13

  Total energy:                                           -248.6420944089 a.u.
  Excitation energy:                                             409.463605 eV

  Osc. strength:                                                      0.000000
  Trans. dip. moment [a.u.]:           [  -0.000000,    0.000000,   -0.000000]
  <i|r^2|0> [a.u.]:                    [  -0.000000,   -0.000000,   -0.000000]

  V1^2 = 0.8070, V2^2 = 0.1930

  Important amplitudes:
      core i       occ j       vir a        vir b           v   
    -------------------------------------------------------------
     1 (B2u) A                1 (Au ) A                  -0.5942
     1 (B2u) B                1 (Au ) B                  -0.5942
    -------------------------------------------------------------
  ----------------------------------------------------------------------------


  Excited state  4 (B2g)                                           [converged]
  ----------------------------------------------------------------------------
  Term symbol:  2 (-) B2g                                   R^2 =  9.83446e-13

  Total energy:                                           -248.6384205846 a.u.
  Excitation energy:                                             409.563575 eV

  Osc. strength:                                                      0.000000
  Trans. dip. moment [a.u.]:           [   0.000000,    0.000000,   -0.000000]
  <i|r^2|0> [a.u.]:                    [   0.000000,    0.000000,    0.000000]

  V1^2 = 0.8097, V2^2 = 0.1903

  Important amplitudes:
      core i       occ j       vir a        vir b           v   
    -------------------------------------------------------------
     1 (B2u) B                1 (Au ) B                   0.5960
     1 (B2u) A                1 (Au ) A                  -0.5960
    -------------------------------------------------------------
  ----------------------------------------------------------------------------


  Excited state  5 (B2u)                                           [converged]
  ----------------------------------------------------------------------------
  Term symbol:  1 (-) B2u                                   R^2 =  1.79616e-09

  Total energy:                                           -248.5672857088 a.u.
  Excitation energy:                                             411.499253 eV

  Osc. strength:                                                      0.000000
  Trans. dip. moment [a.u.]:           [   0.000000,   -0.000000,    0.000000]
  <i|r^2|0> [a.u.]:                    [   0.000000,    0.000000,    0.000000]

  V1^2 = 0.8279, V2^2 = 0.1721

  Important amplitudes:
      core i       occ j       vir a        vir b           v   
    -------------------------------------------------------------
     1 (B2u) A                7 (Ag ) A                   0.5859
     1 (B2u) B                7 (Ag ) B                  -0.5859
    -------------------------------------------------------------
  ----------------------------------------------------------------------------


  Excited state  6 (B2u)                                           [converged]
  ----------------------------------------------------------------------------
  Term symbol:  2 (-) B2u                                   R^2 =  5.18637e-10

  Total energy:                                           -248.5659906928 a.u.
  Excitation energy:                                             411.534492 eV

  Osc. strength:                                                      0.000190
  Trans. dip. moment [a.u.]:           [   0.000000,    0.004336,   -0.000000]
  <i|r^2|0> [a.u.]:                    [   0.000000,   -0.000000,    0.000000]

  V1^2 = 0.8264, V2^2 = 0.1736

  Important amplitudes:
      core i       occ j       vir a        vir b           v   
    -------------------------------------------------------------
     1 (B2u) B                7 (Ag ) B                  -0.5960
     1 (B2u) A                7 (Ag ) A                  -0.5960
    -------------------------------------------------------------
  ----------------------------------------------------------------------------


  Excited state  7 (B1g)                                           [converged]
  ----------------------------------------------------------------------------
  Term symbol:  1 (-) B1g                                   R^2 =  3.89646e-10

  Total energy:                                           -248.5414495062 a.u.
  Excitation energy:                                             412.202292 eV

  Osc. strength:                                                      0.000000
  Trans. dip. moment [a.u.]:           [   0.000000,    0.000000,    0.000000]
  <i|r^2|0> [a.u.]:                    [  -0.000000,   -0.000000,   -0.000000]

  V1^2 = 0.8201, V2^2 = 0.1799

  Important amplitudes:
      core i       occ j       vir a        vir b           v   
    -------------------------------------------------------------
     1 (B2u) B                5 (B3u) B                  -0.6232
     1 (B2u) A                5 (B3u) A                  -0.6232
    -------------------------------------------------------------
  ----------------------------------------------------------------------------


  Excited state  8 (B1g)                                           [converged]
  ----------------------------------------------------------------------------
  Term symbol:  2 (-) B1g                                   R^2 =  4.08873e-10

  Total energy:                                           -248.5412747239 a.u.
  Excitation energy:                                             412.207048 eV

  Osc. strength:                                                      0.000000
  Trans. dip. moment [a.u.]:           [   0.000000,    0.000000,    0.000000]
  <i|r^2|0> [a.u.]:                    [  -0.000000,    0.000000,   -0.000000]

  V1^2 = 0.8203, V2^2 = 0.1797

  Important amplitudes:
      core i       occ j       vir a        vir b           v   
    -------------------------------------------------------------
     1 (B2u) A                5 (B3u) A                  -0.6234
     1 (B2u) B                5 (B3u) B                   0.6234
    -------------------------------------------------------------
  ----------------------------------------------------------------------------


  Excited state  9 (B1u)                                           [converged]
  ----------------------------------------------------------------------------
  Term symbol:  1 (-) B1u                                   R^2 =  9.75534e-13

  Total energy:                                           -248.5266201001 a.u.
  Excitation energy:                                             412.605820 eV

  Osc. strength:                                                      0.000000
  Trans. dip. moment [a.u.]:           [   0.000000,   -0.000000,   -0.000000]
  <i|r^2|0> [a.u.]:                    [  -0.000000,    0.000000,   -0.000000]

  V1^2 = 0.7964, V2^2 = 0.2036

  Important amplitudes:
      core i       occ j       vir a        vir b           v   
    -------------------------------------------------------------
     1 (B2u) B                4 (B3g) B                  -0.3831
     1 (B2u) A                4 (B3g) A                   0.3831
    -------------------------------------------------------------
  ----------------------------------------------------------------------------


  Excited state 10 (Ag)                                            [converged]
  ----------------------------------------------------------------------------
  Term symbol:  2 (-) Ag                                    R^2 =  2.06975e-08

  Total energy:                                           -248.5257319607 a.u.
  Excitation energy:                                             412.629988 eV

  Osc. strength:                                                      0.000000
  Trans. dip. moment [a.u.]:           [  -0.000000,    0.000000,   -0.000000]
  <i|r^2|0> [a.u.]:                    [  -0.000000,   -0.000000,   -0.000000]

  V1^2 = 0.8305, V2^2 = 0.1695

  Important amplitudes:
      core i       occ j       vir a        vir b           v   
    -------------------------------------------------------------
     1 (B2u) A                6 (B2u) A                  -0.6253
     1 (B2u) B                6 (B2u) B                   0.6253
    -------------------------------------------------------------
  ----------------------------------------------------------------------------


  Excited state 11 (B2u)                                           [converged]
  ----------------------------------------------------------------------------
  Term symbol:  3 (-) B2u                                   R^2 =  2.58977e-08

  Total energy:                                           -248.5256087306 a.u.
  Excitation energy:                                             412.633341 eV

  Osc. strength:                                                      0.000000
  Trans. dip. moment [a.u.]:           [  -0.000000,    0.000000,    0.000000]
  <i|r^2|0> [a.u.]:                    [   0.000000,    0.000000,    0.000000]

  V1^2 = 0.8247, V2^2 = 0.1753

  Important amplitudes:
      core i       occ j       vir a        vir b           v   
    -------------------------------------------------------------
     1 (B2u) B                8 (Ag ) B                  -0.5716
     1 (B2u) A                8 (Ag ) A                   0.5716
    -------------------------------------------------------------
  ----------------------------------------------------------------------------


  Excited state 12 (Ag)                                            [converged]
  ----------------------------------------------------------------------------
  Term symbol:  3 (-) Ag                                    R^2 =  1.70554e-08

  Total energy:                                           -248.5248880403 a.u.
  Excitation energy:                                             412.652952 eV

  Osc. strength:                                                      0.000000
  Trans. dip. moment [a.u.]:           [  -0.000000,    0.000000,   -0.000000]
  <i|r^2|0> [a.u.]:                    [  -0.002379,   -0.077963,   -0.001823]

  V1^2 = 0.8299, V2^2 = 0.1701

  Important amplitudes:
      core i       occ j       vir a        vir b           v   
    -------------------------------------------------------------
     1 (B2u) B                6 (B2u) B                  -0.6261
     1 (B2u) A                6 (B2u) A                  -0.6261
    -------------------------------------------------------------
  ----------------------------------------------------------------------------


  Excited state 13 (B2u)                                           [converged]
  ----------------------------------------------------------------------------
  Term symbol:  4 (-) B2u                                   R^2 =  3.41102e-09

  Total energy:                                           -248.5220695934 a.u.
  Excitation energy:                                             412.729646 eV

  Osc. strength:                                                      0.000178
  Trans. dip. moment [a.u.]:           [  -0.000000,   -0.004194,    0.000000]
  <i|r^2|0> [a.u.]:                    [  -0.000000,    0.000000,   -0.000000]

  V1^2 = 0.8246, V2^2 = 0.1754

  Important amplitudes:
      core i       occ j       vir a        vir b           v   
    -------------------------------------------------------------
     1 (B2u) A                8 (Ag ) A                  -0.5852
     1 (B2u) B                8 (Ag ) B                  -0.5852
    -------------------------------------------------------------
  ----------------------------------------------------------------------------


  Excited state 14 (B3g)                                           [converged]
  ----------------------------------------------------------------------------
  Term symbol:  3 (-) B3g                                   R^2 =  1.22308e-10

  Total energy:                                           -248.5210630294 a.u.
  Excitation energy:                                             412.757036 eV

  Osc. strength:                                                      0.000000
  Trans. dip. moment [a.u.]:           [  -0.000000,    0.000000,   -0.000000]
  <i|r^2|0> [a.u.]:                    [   0.000000,   -0.000000,    0.000000]

  V1^2 = 0.8260, V2^2 = 0.1740

  Important amplitudes:
      core i       occ j       vir a        vir b           v   
    -------------------------------------------------------------
     1 (B2u) B                3 (B1u) B                   0.5944
     1 (B2u) A                3 (B1u) A                   0.5944
    -------------------------------------------------------------
  ----------------------------------------------------------------------------


  Excited state 15 (B3g)                                           [converged]
  ----------------------------------------------------------------------------
  Term symbol:  4 (-) B3g                                   R^2 =  7.87160e-11

  Total energy:                                           -248.5207122238 a.u.
  Excitation energy:                                             412.766582 eV

  Osc. strength:                                                      0.000000
  Trans. dip. moment [a.u.]:           [  -0.000000,    0.000000,    0.000000]
  <i|r^2|0> [a.u.]:                    [   0.000000,   -0.000000,    0.000000]

  V1^2 = 0.8264, V2^2 = 0.1736

  Important amplitudes:
      core i       occ j       vir a        vir b           v   
    -------------------------------------------------------------
     1 (B2u) A                3 (B1u) A                   0.5966
     1 (B2u) B                3 (B1u) B                  -0.5966
    -------------------------------------------------------------
  ----------------------------------------------------------------------------


  Excited state 16 (B1u)                                           [converged]
  ----------------------------------------------------------------------------
  Term symbol:  2 (-) B1u                                   R^2 =  1.04456e-12

  Total energy:                                           -248.5131630851 a.u.
  Excitation energy:                                             412.972004 eV

  Osc. strength:                                                      0.032219
  Trans. dip. moment [a.u.]:           [  -0.000000,    0.000000,    0.056431]
  <i|r^2|0> [a.u.]:                    [   0.000000,   -0.000000,    0.000000]

  V1^2 = 0.7939, V2^2 = 0.2061

  Important amplitudes:
      core i       occ j       vir a        vir b           v   
    -------------------------------------------------------------
     1 (B2u) A                2 (B3g) A                   0.3942
     1 (B2u) B                2 (B3g) B                   0.3942
    -------------------------------------------------------------
  ----------------------------------------------------------------------------


  Excited state 17 (B3u)                                           [converged]
  ----------------------------------------------------------------------------
  Term symbol:  1 (-) B3u                                   R^2 =  6.79260e-13

  Total energy:                                           -248.5073362477 a.u.
  Excitation energy:                                             413.130561 eV

  Osc. strength:                                                      0.000000
  Trans. dip. moment [a.u.]:           [   0.000000,   -0.000000,    0.000000]
  <i|r^2|0> [a.u.]:                    [  -0.000000,   -0.000000,   -0.000000]

  V1^2 = 0.8249, V2^2 = 0.1751

  Important amplitudes:
      core i       occ j       vir a        vir b           v   
    -------------------------------------------------------------
     1 (B2u) A                4 (B1g) A                  -0.6221
     1 (B2u) B                4 (B1g) B                   0.6221
    -------------------------------------------------------------
  ----------------------------------------------------------------------------


  Excited state 18 (B3u)                                           [converged]
  ----------------------------------------------------------------------------
  Term symbol:  2 (-) B3u                                   R^2 =  6.78789e-13

  Total energy:                                           -248.5072115376 a.u.
  Excitation energy:                                             413.133954 eV

  Osc. strength:                                                      0.000671
  Trans. dip. moment [a.u.]:           [  -0.008143,    0.000000,   -0.000000]
  <i|r^2|0> [a.u.]:                    [  -0.000000,    0.000000,    0.000000]

  V1^2 = 0.8247, V2^2 = 0.1753

  Important amplitudes:
      core i       occ j       vir a        vir b           v   
    -------------------------------------------------------------
     1 (B2u) B                4 (B1g) B                   0.6225
     1 (B2u) A                4 (B1g) A                   0.6225
    -------------------------------------------------------------
  ----------------------------------------------------------------------------


  Excited state 19 (B2u)                                           [converged]
  ----------------------------------------------------------------------------
  Term symbol:  5 (-) B2u                                   R^2 =  4.90705e-07

  Total energy:                                           -248.4942394141 a.u.
  Excitation energy:                                             413.486944 eV

  Osc. strength:                                                      0.000000
  Trans. dip. moment [a.u.]:           [  -0.000000,    0.000000,    0.000000]
  <i|r^2|0> [a.u.]:                    [   0.000000,   -0.000000,    0.000000]

  V1^2 = 0.8273, V2^2 = 0.1727

  Important amplitudes:
      core i       occ j       vir a        vir b           v   
    -------------------------------------------------------------
     1 (B2u) A                9 (Ag ) A                  -0.6080
     1 (B2u) B                9 (Ag ) B                   0.6080
    -------------------------------------------------------------
  ----------------------------------------------------------------------------


  Excited state 20 (B2u)                                           [converged]
  ----------------------------------------------------------------------------
  Term symbol:  6 (-) B2u                                   R^2 =  8.24968e-08

  Total energy:                                           -248.4924839781 a.u.
  Excitation energy:                                             413.534712 eV

  Osc. strength:                                                      0.000111
  Trans. dip. moment [a.u.]:           [  -0.000000,   -0.003314,   -0.000000]
  <i|r^2|0> [a.u.]:                    [  -0.000000,    0.000000,   -0.000000]

  V1^2 = 0.8270, V2^2 = 0.1730

  Important amplitudes:
      core i       occ j       vir a        vir b           v   
    -------------------------------------------------------------
     1 (B2u) B                9 (Ag ) B                   0.6053
     1 (B2u) A                9 (Ag ) A                   0.6053
    -------------------------------------------------------------
  ----------------------------------------------------------------------------


  Excited state 21 (Au)                                            [converged]
  ----------------------------------------------------------------------------
  Term symbol:  1 (-) Au                                    R^2 =  8.87433e-13

  Total energy:                                           -248.4842461663 a.u.
  Excitation energy:                                             413.758874 eV

  Osc. strength:                                                      0.000000
  Trans. dip. moment [a.u.]:           [  -0.000000,   -0.000000,   -0.000000]
  <i|r^2|0> [a.u.]:                    [   0.000000,    0.000000,    0.000000]

  V1^2 = 0.8196, V2^2 = 0.1804

  Important amplitudes:
      core i       occ j       vir a        vir b           v   
    -------------------------------------------------------------
     1 (B2u) B                2 (B2g) B                   0.6378
     1 (B2u) A                2 (B2g) A                   0.6378
    -------------------------------------------------------------
  ----------------------------------------------------------------------------


  Excited state 22 (Au)                                            [converged]
  ----------------------------------------------------------------------------
  Term symbol:  2 (-) Au                                    R^2 =  8.90192e-13

  Total energy:                                           -248.4839941030 a.u.
  Excitation energy:                                             413.765733 eV

  Osc. strength:                                                      0.000000
  Trans. dip. moment [a.u.]:           [  -0.000000,   -0.000000,   -0.000000]
  <i|r^2|0> [a.u.]:                    [   0.000000,    0.000000,    0.000000]

  V1^2 = 0.8199, V2^2 = 0.1801

  Important amplitudes:
      core i       occ j       vir a        vir b           v   
    -------------------------------------------------------------
     1 (B2u) A                2 (B2g) A                   0.6380
     1 (B2u) B                2 (B2g) B                  -0.6380
    -------------------------------------------------------------
  ----------------------------------------------------------------------------


  Excited state 23 (B1u)                                           [converged]
  ----------------------------------------------------------------------------
  Term symbol:  3 (-) B1u                                   R^2 =  1.51129e-12

  Total energy:                                           -248.4675766170 a.u.
  Excitation energy:                                             414.212475 eV

  Osc. strength:                                                      0.000000
  Trans. dip. moment [a.u.]:           [  -0.000000,    0.000000,    0.000000]
  <i|r^2|0> [a.u.]:                    [  -0.000000,   -0.000000,   -0.000000]

  V1^2 = 0.8082, V2^2 = 0.1918

  Important amplitudes:
      core i       occ j       vir a        vir b           v   
    -------------------------------------------------------------
     1 (B2u) B                2 (B3g) B                  -0.5222
     1 (B2u) A                2 (B3g) A                   0.5222
    -------------------------------------------------------------
  ----------------------------------------------------------------------------


  Excited state 24 (B1u)                                           [converged]
  ----------------------------------------------------------------------------
  Term symbol:  4 (-) B1u                                   R^2 =  1.35449e-12

  Total energy:                                           -248.4673606911 a.u.
  Excitation energy:                                             414.218351 eV

  Osc. strength:                                                      0.003688
  Trans. dip. moment [a.u.]:           [   0.000000,   -0.000000,   -0.019065]
  <i|r^2|0> [a.u.]:                    [   0.000000,    0.000000,    0.000000]

  V1^2 = 0.8015, V2^2 = 0.1985

  Important amplitudes:
      core i       occ j       vir a        vir b           v   
    -------------------------------------------------------------
     1 (B2u) A                2 (B3g) A                   0.4958
     1 (B2u) B                2 (B3g) B                   0.4958
    -------------------------------------------------------------
  ----------------------------------------------------------------------------


  Excited state 25 (Ag)                                            [converged]
  ----------------------------------------------------------------------------
  Term symbol:  4 (-) Ag                                    R^2 =  8.23091e-07

  Total energy:                                           -248.4635102645 a.u.
  Excitation energy:                                             414.323126 eV

  Osc. strength:                                                      0.000000
  Trans. dip. moment [a.u.]:           [  -0.000000,   -0.000000,    0.000000]
  <i|r^2|0> [a.u.]:                    [   0.000000,    0.000000,    0.000000]

  V1^2 = 0.8271, V2^2 = 0.1729

  Important amplitudes:
      core i       occ j       vir a        vir b           v   
    -------------------------------------------------------------
     1 (B2u) B                7 (B2u) B                   0.6043
     1 (B2u) A                7 (B2u) A                  -0.6043
    -------------------------------------------------------------
  ----------------------------------------------------------------------------


  Excited state 26 (B1g)                                           [converged]
  ----------------------------------------------------------------------------
  Term symbol:  3 (-) B1g                                   R^2 =  7.19704e-08

  Total energy:                                           -248.4632435425 a.u.
  Excitation energy:                                             414.330384 eV

[...]

  Total energy:                                           -248.4062351175 a.u.
  Excitation energy:                                             415.881662 eV

  Osc. strength:                                                      0.000000
  Trans. dip. moment [a.u.]:           [  -0.000000,    0.000000,    0.000000]
  <i|r^2|0> [a.u.]:                    [  -0.000000,    0.000000,    0.000000]

  V1^2 = 0.8294, V2^2 = 0.1706

  Important amplitudes:
      core i       occ j       vir a        vir b           v   
    -------------------------------------------------------------
     1 (B2u) B                5 (B1g) B                   0.6307
     1 (B2u) A                5 (B1g) A                  -0.6307
    -------------------------------------------------------------
  ----------------------------------------------------------------------------


  Excited state 39 (B3g)                                           [converged]
  ----------------------------------------------------------------------------
  Term symbol:  5 (-) B3g                                   R^2 =  1.85752e-07

  Total energy:                                           -248.3752602874 a.u.
  Excitation energy:                                             416.724530 eV

  Osc. strength:                                                      0.000000
  Trans. dip. moment [a.u.]:           [   0.000000,    0.000000,    0.000000]
  <i|r^2|0> [a.u.]:                    [  -0.000000,   -0.000000,   -0.000000]

  V1^2 = 0.8281, V2^2 = 0.1719

  Important amplitudes:
      core i       occ j       vir a        vir b           v   
    -------------------------------------------------------------
     1 (B2u) A                4 (B1u) A                  -0.6233
     1 (B2u) B                4 (B1u) B                   0.6233
    -------------------------------------------------------------
  ----------------------------------------------------------------------------


  Excited state 40 (B3g)                                           [converged]
  ----------------------------------------------------------------------------
  Term symbol:  6 (-) B3g                                   R^2 =  9.66738e-07

  Total energy:                                           -248.3707002158 a.u.
  Excitation energy:                                             416.848616 eV

  Osc. strength:                                                      0.000000
  Trans. dip. moment [a.u.]:           [   0.000000,    0.000000,    0.000000]
  <i|r^2|0> [a.u.]:                    [   0.000000,    0.000000,    0.000000]

  V1^2 = 0.8315, V2^2 = 0.1685

  Important amplitudes:
      core i       occ j       vir a        vir b           v   
    -------------------------------------------------------------
     1 (B2u) A                4 (B1u) A                  -0.6305
     1 (B2u) B                4 (B1u) B                  -0.6305
    -------------------------------------------------------------
  ----------------------------------------------------------------------------


  Excited state 41 (B3u)                                       [not converged]
  ----------------------------------------------------------------------------
  Term symbol:  5 (-) B3u                                   R^2 =  9.25940e-06

  Total energy:                                           -248.3635733868 a.u.
  Excitation energy:                                             417.042547 eV


  V1^2 = 0.8211, V2^2 = 0.1789

  Important amplitudes:
      core i       occ j       vir a        vir b           v   
    -------------------------------------------------------------
     1 (B2u) B                6 (B1g) B                  -0.4048
     1 (B2u) A                6 (B1g) A                   0.4048
    -------------------------------------------------------------
  ----------------------------------------------------------------------------


  Excited state 42 (B3u)                                       [not converged]
  ----------------------------------------------------------------------------
  Term symbol:  6 (-) B3u                                   R^2 =  7.48318e-06

  Total energy:                                           -248.3616135483 a.u.
  Excitation energy:                                             417.095877 eV


  V1^2 = 0.8228, V2^2 = 0.1772

  Important amplitudes:
      core i       occ j       vir a        vir b           v   
    -------------------------------------------------------------
     1 (B2u) B                6 (B1g) B                   0.4999
     1 (B2u) A                6 (B1g) A                   0.4999
    -------------------------------------------------------------
  ----------------------------------------------------------------------------


  Excited state 43 (B1u)                                           [converged]
  ----------------------------------------------------------------------------
  Term symbol:  5 (-) B1u                                   R^2 =  3.67864e-09

  Total energy:                                           -248.3492059940 a.u.
  Excitation energy:                                             417.433504 eV

  Osc. strength:                                                      0.000000
  Trans. dip. moment [a.u.]:           [   0.000000,    0.000000,   -0.000000]
  <i|r^2|0> [a.u.]:                    [   0.000000,   -0.000000,    0.000000]

  V1^2 = 0.0000, V2^2 = 1.0000

  Important amplitudes:
      core i       occ j       vir a        vir b           v   
    -------------------------------------------------------------
     1 (B2u) A   1 (B2g) B    2 (B1u) A    1 (Au ) B     -0.2290
     1 (B2u) B   1 (B2g) A    1 (Au ) A    2 (B1u) B      0.2290
    -------------------------------------------------------------
  ----------------------------------------------------------------------------


  Excited state 44 (B1u)                                       [not converged]
  ----------------------------------------------------------------------------
  Term symbol:  6 (-) B1u                                   R^2 =  1.36105e-05

  Total energy:                                           -248.3374411531 a.u.
  Excitation energy:                                             417.753641 eV


  V1^2 = 0.1651, V2^2 = 0.8349

  Important amplitudes:
      core i       occ j       vir a        vir b           v   
    -------------------------------------------------------------
     1 (B2u) A   1 (B2g) B    1 (Au ) A    2 (B1u) B     -0.2627
     1 (B2u) B   1 (B2g) A    2 (B1u) A    1 (Au ) B     -0.2627
    -------------------------------------------------------------
  ----------------------------------------------------------------------------


  Excited state 45 (B2g)                                           [converged]
  ----------------------------------------------------------------------------
  Term symbol:  5 (-) B2g                                   R^2 =  2.12517e-07

  Total energy:                                           -248.2929415545 a.u.
  Excitation energy:                                             418.964537 eV

  Osc. strength:                                                      0.000000
  Trans. dip. moment [a.u.]:           [  -0.000000,   -0.000000,    0.000000]
  <i|r^2|0> [a.u.]:                    [   0.000000,    0.000000,    0.000000]

  V1^2 = 0.0000, V2^2 = 1.0000

  Important amplitudes:
      core i       occ j       vir a        vir b           v   
    -------------------------------------------------------------
     1 (B2u) A   1 (B2g) B    2 (B1u) A    4 (B3g) B      0.1664
     1 (B2u) B   1 (B2g) A    4 (B3g) A    2 (B1u) B     -0.1664
    -------------------------------------------------------------
  ----------------------------------------------------------------------------


  Excited state 46 (B2g)                                           [converged]
  ----------------------------------------------------------------------------
  Term symbol:  6 (-) B2g                                   R^2 =  6.74865e-07

  Total energy:                                           -248.2633588117 a.u.
  Excitation energy:                                             419.769524 eV

  Osc. strength:                                                      0.000000
  Trans. dip. moment [a.u.]:           [   0.000000,    0.000000,   -0.000000]
  <i|r^2|0> [a.u.]:                    [   0.000000,    0.000000,    0.000000]

  V1^2 = 0.0006, V2^2 = 0.9994

  Important amplitudes:
      core i       occ j       vir a        vir b           v   
    -------------------------------------------------------------
     1 (B2u) B   1 (B2g) A    4 (B3g) A    2 (B1u) B     -0.1795
     1 (B2u) A   1 (B2g) B    2 (B1u) A    4 (B3g) B     -0.1795
    -------------------------------------------------------------
  ----------------------------------------------------------------------------


  Excited state 47 (Au)                                            [converged]
  ----------------------------------------------------------------------------
  Term symbol:  5 (-) Au                                    R^2 =  4.48011e-07

  Total energy:                                           -248.1851395864 a.u.
  Excitation energy:                                             421.897978 eV

  Osc. strength:                                                      0.000000
  Trans. dip. moment [a.u.]:           [  -0.000000,   -0.000000,   -0.000000]
  <i|r^2|0> [a.u.]:                    [  -0.000000,   -0.000000,   -0.000000]

  V1^2 = 0.0000, V2^2 = 1.0000

  Important amplitudes:
      core i       occ j       vir a        vir b           v   
    -------------------------------------------------------------
     1 (B2u) B   1 (B2g) A    3 (B1u) A    2 (B1u) B      0.2593
     1 (B2u) B   1 (B2g) A    2 (B1u) A    3 (B1u) B     -0.2593
    -------------------------------------------------------------
  ----------------------------------------------------------------------------


  Excited state 48 (Au)                                        [not converged]
  ----------------------------------------------------------------------------
  Term symbol:  6 (-) Au                                    R^2 =  3.02511e-03

  Total energy:                                           -248.1750530483 a.u.
  Excitation energy:                                             422.172446 eV


  V1^2 = 0.0008, V2^2 = 0.9992

  Important amplitudes:
      core i       occ j       vir a        vir b           v   
    -------------------------------------------------------------
     1 (B2u) B   1 (B2g) B    2 (B1u) B    3 (B1u) B      0.2927
     1 (B2u) A   1 (B2g) A    2 (B1u) A    3 (B1u) A     -0.2919
    -------------------------------------------------------------
  ----------------------------------------------------------------------------


--------------------------------------------------------------------------------
  Time of ADC calculation:  CPU 29837.83 s  wall 5958.19 s
================================================================================
 
 --------------------------------------------------------------
             Orbital Energies (a.u.) and Symmetries
 --------------------------------------------------------------
 
 Alpha MOs, Unrestricted
 -- Occupied --                  
-15.601 -15.601 -11.292 -11.292 -11.291 -11.291  -1.309  -1.220
  1 B2u   1 Ag    1 B3u   2 Ag    2 B2u   1 B1g   3 Ag    3 B2u                
 -1.059  -0.909  -0.890  -0.731  -0.706  -0.682  -0.617  -0.574
  2 B3u   4 Ag    2 B1g   5 Ag    3 B3u   4 B2u   4 B3u   1 B1u                
 -0.554  -0.504  -0.435  -0.419  -0.363
  3 B1g   5 B2u   1 B3g   6 Ag    1 B2g                                        
 -- Virtual --                   
  0.064   0.064   0.074   0.084   0.099   0.100   0.112   0.119
  7 Ag    2 B1u   5 B3u   6 B2u   4 B1g   1 Au    8 Ag    3 B1u                
  0.128   0.141   0.142   0.146   0.147   0.186   0.187   0.204
  2 B3g   9 Ag    2 B2g   7 B2u   6 B3u   5 B1g   8 B2u   7 B3u                
  0.206   0.252   0.272   0.284   0.302   0.305   0.311   0.311
  2 Au    6 B1g  10 Ag    4 B1u   8 B3u   9 B2u  11 Ag    3 B3g                
  0.323   0.335   0.349   0.365   0.369   0.413   0.414   0.417
  7 B1g  12 Ag    4 B3g  10 B2u   9 B3u  13 Ag    8 B1g  11 B2u                
  0.461   0.517   0.532   0.611   0.662   0.684   0.699   0.724
 10 B3u  12 B2u   9 B1g  14 Ag   13 B2u  11 B3u   5 B1u   3 B2g                
  0.734   0.735   0.742   0.787   0.795   0.836   0.910   0.930
 15 Ag   12 B3u  10 B1g   5 B3g   3 Au   11 B1g  14 B2u  16 Ag                 
  0.930   0.968   0.969   0.973   1.009   1.041   1.061   1.078
 15 B2u  13 B3u  12 B1g  16 B2u  17 Ag   13 B1g  14 B3u   6 B1u                
  1.101   1.143   1.150   1.185   1.187   1.196   1.298   1.299
 18 Ag   17 B2u   6 B3g  14 B1g  18 B2u  15 B3u   7 B1u   4 B2g                
  1.313   1.391   1.460   1.544   1.584   1.629   1.645   1.711
 15 B1g  19 Ag    5 B2g   8 B1u  20 Ag    4 Au    7 B3g  19 B2u                
  1.806   1.860   1.866   1.910   2.008   2.113   2.114   2.143
 16 B3u  21 Ag   20 B2u  17 B3u  22 Ag   18 B3u   5 Au   16 B1g                
  2.221   2.293   2.416   2.531   2.578   2.584   2.628   2.637
  8 B3g  21 B2u  17 B1g  22 B2u  18 B1g   9 B1u  23 B2u  23 Ag                 
  2.662   2.699   2.791   2.946   2.990   3.106   3.135   3.137
  6 B2g   9 B3g  19 B3u  24 Ag    6 Au   10 B1u  24 B2u  25 Ag                 
  3.155   3.173   3.222   3.270   3.324   3.347   3.603   3.632
 20 B3u   7 B2g  19 B1g   7 Au   10 B3g  20 B1g  26 Ag   21 B3u                
  3.763   3.809   3.838   3.861   3.865   4.324   4.335   4.344
 25 B2u  22 B3u  21 B1g  26 B2u  27 Ag   11 B1u  22 B1g  27 B2u                
  4.412   4.697   5.036   5.258   5.794  24.709  24.834  25.144
 11 B3g  28 Ag   28 B2u  23 B3u  23 B1g  29 Ag   24 B3u  24 B1g                
 25.160  36.887  37.060
 29 B2u  30 Ag   30 B2u                                                        
 
 Beta MOs, Unrestricted
 -- Occupied --                  
-15.601 -15.601 -11.292 -11.292 -11.291 -11.291  -1.309  -1.220
  1 B2u   1 Ag    1 B3u   2 Ag    2 B2u   1 B1g   3 Ag    3 B2u                
 -1.059  -0.909  -0.890  -0.731  -0.706  -0.682  -0.617  -0.574
  2 B3u   4 Ag    2 B1g   5 Ag    3 B3u   4 B2u   4 B3u   1 B1u                
 -0.554  -0.504  -0.435  -0.419  -0.363
  3 B1g   5 B2u   1 B3g   6 Ag    1 B2g                                        
 -- Virtual --                   
  0.064   0.064   0.074   0.084   0.099   0.100   0.112   0.119
  7 Ag    2 B1u   5 B3u   6 B2u   4 B1g   1 Au    8 Ag    3 B1u                
  0.128   0.141   0.142   0.146   0.147   0.186   0.187   0.204
  2 B3g   9 Ag    2 B2g   7 B2u   6 B3u   5 B1g   8 B2u   7 B3u                
  0.206   0.252   0.272   0.284   0.302   0.305   0.311   0.311
  2 Au    6 B1g  10 Ag    4 B1u   8 B3u   9 B2u  11 Ag    3 B3g                
  0.323   0.335   0.349   0.365   0.369   0.413   0.414   0.417
  7 B1g  12 Ag    4 B3g  10 B2u   9 B3u  13 Ag    8 B1g  11 B2u                
  0.461   0.517   0.532   0.611   0.662   0.684   0.699   0.724
 10 B3u  12 B2u   9 B1g  14 Ag   13 B2u  11 B3u   5 B1u   3 B2g                
  0.734   0.735   0.742   0.787   0.795   0.836   0.910   0.930
 15 Ag   12 B3u  10 B1g   5 B3g   3 Au   11 B1g  14 B2u  16 Ag                 
  0.930   0.968   0.969   0.973   1.009   1.041   1.061   1.078
 15 B2u  13 B3u  12 B1g  16 B2u  17 Ag   13 B1g  14 B3u   6 B1u                
  1.101   1.143   1.150   1.185   1.187   1.196   1.298   1.299
 18 Ag   17 B2u   6 B3g  14 B1g  18 B2u  15 B3u   7 B1u   4 B2g                
  1.313   1.391   1.460   1.544   1.584   1.629   1.645   1.711
 15 B1g  19 Ag    5 B2g   8 B1u  20 Ag    4 Au    7 B3g  19 B2u                
  1.806   1.860   1.866   1.910   2.008   2.113   2.114   2.143
 16 B3u  21 Ag   20 B2u  17 B3u  22 Ag   18 B3u   5 Au   16 B1g                
  2.221   2.293   2.416   2.531   2.578   2.584   2.628   2.637
  8 B3g  21 B2u  17 B1g  22 B2u  18 B1g   9 B1u  23 B2u  23 Ag                 
  2.662   2.699   2.791   2.946   2.990   3.106   3.135   3.137
  6 B2g   9 B3g  19 B3u  24 Ag    6 Au   10 B1u  24 B2u  25 Ag                 
  3.155   3.173   3.222   3.270   3.324   3.347   3.603   3.632
 20 B3u   7 B2g  19 B1g   7 Au   10 B3g  20 B1g  26 Ag   21 B3u                
  3.763   3.809   3.838   3.861   3.865   4.324   4.335   4.344
 25 B2u  22 B3u  21 B1g  26 B2u  27 Ag   11 B1u  22 B1g  27 B2u                
  4.412   4.697   5.036   5.258   5.794  24.709  24.834  25.144
 11 B3g  28 Ag   28 B2u  23 B3u  23 B1g  29 Ag   24 B3u  24 B1g                
 25.160  36.887  37.060
 29 B2u  30 Ag   30 B2u                                                        
 --------------------------------------------------------------
 
          Ground-State Mulliken Net Atomic Charges

     Atom                 Charge (a.u.)    Spin (a.u.)
  --------------------------------------------------------
      1 C                    -0.228329       0.000000
      2 C                    -0.228329       0.000000
      3 N                    -0.049019       0.000000
      4 N                    -0.049019       0.000000
      5 C                    -0.228329       0.000000
      6 C                    -0.228329       0.000000
      7 H                     0.252838       0.000000
      8 H                     0.252838       0.000000
      9 H                     0.252838       0.000000
     10 H                     0.252838       0.000000
  --------------------------------------------------------
  Sum of atomic charges =     0.000000
  Sum of spin   charges =     0.000000

 -----------------------------------------------------------------
                    Cartesian Multipole Moments
 -----------------------------------------------------------------
    Charge (ESU x 10^10)
                 0.0000
    Dipole Moment (Debye)
         X       0.0000      Y       0.0000      Z       0.0000
       Tot       0.0000
    Quadrupole Moments (Debye-Ang)
        XX     -26.3616     XY       0.0000     YY     -42.2923
        XZ       0.0000     YZ       0.0000     ZZ     -37.2623
    Octopole Moments (Debye-Ang^2)
       XXX       0.0000    XXY       0.0000    XYY       0.0000
       YYY       0.0000    XXZ       0.0000    XYZ       0.0000
       YYZ       0.0000    XZZ       0.0000    YZZ       0.0000
       ZZZ       0.0000
    Hexadecapole Moments (Debye-Ang^3)
      XXXX    -228.4874   XXXY       0.0000   XXYY     -69.8506
      XYYY       0.0000   YYYY    -309.3974   XXXZ       0.0000
      XXYZ       0.0000   XYYZ       0.0000   YYYZ       0.0000
      XXZZ     -56.2077   XYZZ       0.0000   YYZZ     -53.5224
      XZZZ       0.0000   YZZZ       0.0000   ZZZZ     -41.4437
 -----------------------------------------------------------------
Archival summary:
1\1\tp-linux1\SP\HF\BasisUnspecified\244\thomas\TueJan1715:45:582017TueJan1715:45:582017\0\\#,HF,BasisUnspecified,\\0,1\N\C,1,1.34606\H,2,1.0834,1,116.808\C,1,1.34606,2,115.185,3,-180,0\H,4,1.0834,1,116.808,2,-180,0\C,2,1.39225,1,122.408,3,-180,0\H,6,1.0834,2,120.785,1,-180,0\N,6,1.34606,2,122.408,1,0,0\C,8,1.34606,6,115.185,2,0,0\H,9,1.0834,8,116.808,6,180,0\\HF=-262.73387\\@

 Total job time:  5964.09s(wall), 29887.63s(cpu) 
 Tue Jan 17 15:45:58 2017

        *************************************************************
        *                                                           *
        *  Thank you very much for using Q-Chem.  Have a nice day.  *
        *                                                           *
        *************************************************************


0 sent ACK to 0 
now end server 0 ... 
cleanup process ... done
remove work dirs /scratch/qchem/qchem9120.0 -- /scratch/qchem/qchem9120.0
rm -rf /scratch/qchem/qchem9120.0
rm -rf /scratch/qchem/qchem9120
