You are running Q-Chem version: 4.3

#
# job setting
#
local host:  tp-linux1
current dir: /home/thomas/fs-XAS-test01/pyrazine/qchem
input file:  src_input3.inp
output file: 
nprocs     : 1
nthreads   : 1
#
# qchem installation setting
#
QC:          /mnt/software/qchem
QCAUX:       /mnt/software/qchem/qcaux
QCPROG:      /mnt/software/qchem/exe/qcprog.exe
QCPROG_S:    /mnt/software/qchem/exe/qcprog.exe_s
PARALLEL:    -DPARALLEL
QCMPI:       mpich
#
# qchem directory setting
#
qcrun:       qchem8507
QCSCRATCH:   /scratch/qchem
QCLOCALSCR:  
QCTMPDIR:    /scratch/qchem
QCFILEPREF:  /scratch/qchem/qchem8507
QCSAVEDIR:   
workdirs:    /scratch/qchem/qchem8507
workdir0:    /scratch/qchem/qchem8507
partmpdirs =  
#
# parallel setting
#
QCRSH:           ssh
QCMPI:           mpich
QCMPIRUN:        /mnt/software/qchem/bin/mpi/mpirun_qchem
QCMACHINEFILE:   /mnt/software/qchem/bin/mpi/machines
127.0.1.1 32

#
# env setting
#
exported envs:   QC QCAUX QCSCRATCH QCRUNNAME QCFILEPREF QCPROG QCPROG_S GUIFILE

Running Job 1 of 1 src_input3.inp
qchem src_input3.inp_8507.0 /scratch/qchem/qchem8507/ 1
/mnt/software/qchem/bin/mpi/mpirun_qchem -machinefile /mnt/software/qchem/bin/mpi/machines -np 1 /mnt/software/qchem/exe/qcprog.exe src_input3.inp_8507.0 /scratch/qchem/qchem8507/

Process 0 of 1 is on tp-linux1 - thread support 0
initial socket setup ...start
initial socket setup ...done 
now start server 0 ... 

cmd = ssh tp-linux1 /mnt/software/qchem/bin/get_hostid 1908172403 > /scratch/qchem/qchem8507/lic.dat
                  Welcome to Q-Chem
     A Quantum Leap Into The Future Of Chemistry


 Q-Chem 4.3, Q-Chem, Inc., Pleasanton, CA (2015)

 Y. Shao,  Z. Gan,  E. Epifanovsky,  A. T. B. Gilbert,  M. Wormit,  
 J. Kussmann,  A. W. Lange,  A. Behn,  J. Deng,  X. Feng,  D. Ghosh,  
 M. Goldey,  P. R. Horn,  L. D. Jacobson,  I. Kaliman,  R. Z. Khaliullin,  
 T. Kus,  A. Landau,  J. Liu,  E. I. Proynov,  Y. M. Rhee,  R. M. Richard,  
 M. A. Rohrdanz,  R. P. Steele,  E. J. Sundstrom,  H. L. Woodcock III,  
 P. M. Zimmerman,  D. Zuev,  B. Albrecht,  E. Alguire,  B. Austin,  
 S. A. Baeppler,  G. J. O. Beran,  Y. A. Bernard,  E. Berquist,  
 K. Brandhorst,  K. B. Bravaya,  S. T. Brown,  D. Casanova,  C.-M. Chang,  
 Y. Chen,  S. H. Chien,  K. D. Closser,  D. L. Crittenden,  M. Diedenhofen,  
 R. A. DiStasio Jr.,  H. Do,  A. D. Dutoi,  R. G. Edgar,  P.-T. Fang,  
 S. Fatehi,  Q. Feng,  L. Fusti-Molnar,  A. Ghysels,  
 A. Golubeva-Zadorozhnaya,  J. Gomes,  A. Gunina,  M. W. D. Hanson-Heine,  
 P. H. P. Harbach,  A. W. Hauser,  E. G. Hohenstein,  Z. C. Holden,  K. Hui,  
 T.-C. Jagau,  H. Ji,  B. Kaduk,  K. Khistyaev,  Jaehoon Kim,  Jihan Kim,  
 R. A. King,  P. Klunzinger,  D. Kosenkov,  T. Kowalczyk,  C. M. Krauter,  
 K. U. Lao,  A. Laurent,  K. V. Lawler,  S. Lehtola,  S. V. Levchenko,  
 C. Y. Lin,  Y.-S. Lin,  F. Liu,  E. Livshits,  R. C. Lochan,  A. Luenser,  
 P. Manohar,  S. F. Manzer,  S.-P. Mao,  N. Mardirossian,  A. V. Marenich,  
 L. A. Martinez-Martinez,  S. A. Maurer,  N. J. Mayhall,  K. Nanda,  
 C. M. Oana,  R. Olivares-Amaya,  D. P. O'Neill,  J. A. Parkhill,  
 T. M. Perrine,  R. Peverati,  P. A. Pieniazek,  F. Plasser,  A. Prociuk,  
 D. R. Rehn,  E. Rosta,  N. J. Russ,  N. Sergueev,  S. M. Sharada,  
 S. Sharma,  D. W. Small,  A. Sodt,  T. Stauch,  T. Stein,  D. Stuck,  
 Y.-C. Su,  A. J. W. Thom,  T. Tsuchimochi,  L. Vogt,  O. Vydrov,  T. Wang,  
 M. A. Watson,  J. Wenzel,  A. White,  C. F. Williams,  V. Vanovschi,  
 S. Yeganeh,  S. R. Yost,  Z.-Q. You,  I. Y. Zhang,  X. Zhang,  Y. Zhao,  
 B. R. Brooks,  G. K. L. Chan,  D. M. Chipman,  C. J. Cramer,  
 W. A. Goddard III,  M. S. Gordon,  W. J. Hehre,  A. Klamt,  
 H. F. Schaefer III,  M. W. Schmidt,  C. D. Sherrill,  D. G. Truhlar,  
 A. Warshel,  X. Xu,  A. Aspuru-Guzik,  R. Baer,  A. T. Bell,  N. A. Besley,  
 J.-D. Chai,  A. Dreuw,  B. D. Dunietz,  T. R. Furlani,  S. R. Gwaltney,  
 C.-P. Hsu,  Y. Jung,  J. Kong,  D. S. Lambrecht,  W. Liang,  C. Ochsenfeld,  
 V. A. Rassolov,  L. V. Slipchenko,  J. E. Subotnik,  T. Van Voorhis,  
 J. M. Herbert,  A. I. Krylov,  P. M. W. Gill,  M. Head-Gordon

 Contributors to earlier versions of Q-Chem not listed above: 
 R. D. Adamson,  J. Baker,  E. F. C. Byrd,  A. K. Chakraborty,  C.-L. Cheng,  
 H. Dachsel,  R. J. Doerksen,  G. Hawkins,  A. Heyden,  S. Hirata,  
 G. Kedziora,  F. J. Keil,  C. Kelley,  P. P. Korambath,  W. Kurlancheek,  
 A. M. Lee,  M. S. Lee,  D. Liotard,  I. Lotan,  P. E. Maslen,  N. Nair,  
 D. Neuhauser,  R. Olson,  B. Peters,  J. Ritchie,  N. E. Schultz,  
 N. Shenvi,  A. C. Simmonett,  K. S. Thanthiriwatte,  Q. Wu,  W. Zhang

 Please cite Q-Chem as follows:
 Y. Shao et al., Mol. Phys. 113, 184-215 (2015)
 DOI: 10.1080/00268976.2014.952696

 Q-Chem 4.3.0 for Intel X86 Linux

 Parts of Q-Chem use Armadillo 5.200.1 (Boston Tea Smuggler).
 http://arma.sourceforge.net/

 Q-Chem begins on Tue Jan 17 13:57:11 2017  

Host: 
0

     Scratch files written to /scratch/qchem/qchem8507//
 Nov1815 1189b_ 19540  19532 5443   
 Parallel job on  1  processors
Processing $rem in /mnt/software/qchem/config/preferences.
 MEM_TOTAL  2000 

Checking the input file for inconsistencies... 	...done.

--------------------------------------------------------------
User input:
--------------------------------------------------------------
$molecule
0 1
C    -0.696126    -1.136419     0.000000
C     0.696126    -1.136419     0.000000
N    -1.417532     0.000000     0.000000
N     1.417532     0.000000     0.000000
C     0.696126     1.136419     0.000000
C    -0.696126     1.136419     0.000000
H     1.250625     2.067160     0.000000
H    -1.250625     2.067160     0.000000
H     1.250625    -2.067160     0.000000
H    -1.250625    -2.067160     0.000000
$end

$rem
exchange b3lyp
basis 6-311+G*
cis_n_roots 30
cis_triplets false
trnss true                      !reduced single excitation space used
trtype 3                        !to be defined in solute keyword, so oribtal 1 (1s N)
n_sol 1
unrestricted true
mom_start 1
$end

$solute
1
$end

--------------------------------------------------------------
 ----------------------------------------------------------------
             Standard Nuclear Orientation (Angstroms)
    I     Atom           X                Y                Z
 ----------------------------------------------------------------
    1      C       1.1364190000    -0.6961260000     0.0000000000
    2      C       1.1364190000     0.6961260000     0.0000000000
    3      N       0.0000000000    -1.4175320000     0.0000000000
    4      N       0.0000000000     1.4175320000     0.0000000000
    5      C      -1.1364190000     0.6961260000     0.0000000000
    6      C      -1.1364190000    -0.6961260000     0.0000000000
    7      H      -2.0671600000     1.2506250000     0.0000000000
    8      H      -2.0671600000    -1.2506250000     0.0000000000
    9      H       2.0671600000     1.2506250000     0.0000000000
   10      H       2.0671600000    -1.2506250000     0.0000000000
 ----------------------------------------------------------------
 Molecular Point Group                 D2h   NOp =  8
 Largest Abelian Subgroup              D2h   NOp =  8
 Nuclear Repulsion Energy =   207.9974042823 hartrees
 There are       21 alpha and       21 beta electrons
 Requested basis set is 6-311+G(d)
 There are 48 shells and 144 basis functions

 Total QAlloc Memory Limit   2000 MB
 Mega-Array Size        61 MB
 MEM_STATIC part        62 MB

                       Distance Matrix (Angstroms)
             C (  1)   C (  2)   N (  3)   N (  4)   C (  5)   C (  6)
   C (  2)  1.392252
   N (  3)  1.346059  2.399791
   N (  4)  2.399791  1.346059  2.835064
   C (  5)  2.665363  2.272838  2.399791  1.346059
   C (  6)  2.272838  2.665363  1.346059  2.399791  1.392252
   H (  7)  3.748701  3.251213  3.375235  2.073887  1.083396  2.157804
   H (  8)  3.251213  3.748701  2.073887  3.375235  2.157804  1.083396
   H (  9)  2.157804  1.083396  3.375235  2.073887  3.251213  3.748701
   H ( 10)  1.083396  2.157804  2.073887  3.375235  3.748701  3.251213
             H (  7)   H (  8)   H (  9)
   H (  8)  2.501250
   H (  9)  4.134320  4.832065
   H ( 10)  4.832065  4.134320  2.501250
 
 tim1(1): 
  3.999999999999997E-003
 tim1(2): 
  0.000000000000000E+000
 A cutoff of  1.0D-11 yielded   1146 shell pairs
 There are     10569 function pairs (     11484 Cartesian)
 
 -------------------------------------------------------
 OpenMP Integral Computing Module                       
 Release: version 1.0, May 2013, Q-Chem Inc. Pittsburgh 
 -------------------------------------------------------
 Integral Job Info:
 Integral job number is                      11
 Integral operator is                         1
 short-range coefficients                     0
 long-range coefficients              100000000
 Omega coefficients                           0
 if combine SR and LR in K                    0
 Integral screening is                        0
 Integral computing path is                   2
 max size of driver memory is            800000
 size of driver memory is                593474
 size of scratch memory is              2260544
 max col of scratch BK array               1296
 max len of scratch array in speh3          155
 max len of scratch index in speh4           18
 max int batch size is                      520
 min int batch size is                       52
 fixed nKL is                                52
 max L of basis functions is                  2
 order of int derivative is                   0
 number of shells is                         48
 number of basis is                         150
 number of cartesian basis is               150
 number of contracted shell pairs          1146
 number of primitive shell pairs           3470
 maxK2 (contraction) of shell pair           36
 max number of K2 of shell pair               1
 max number of CS2 of shell pair            173
 max number of PS2 of shell pair            648
 mem total for path MDJ                   29946
 -------------------------------------------------------
 Smallest overlap matrix eigenvalue = 4.10E-05

 Scale SEOQF with 1.000000e-01/1.000000e-01/1.000000e-01

 Standard Electronic Orientation quadrupole field applied
 Nucleus-field energy     =     0.0000000050 hartrees
 Guess from superposition of atomic densities
 Warning:  Energy on first SCF cycle will be non-variational
 An unrestricted hybrid HF-DFT SCF calculation will be
 performed using Pulay DIIS extrapolation
 Exchange:     0.2000 Hartree-Fock + 0.0800 Slater + 0.7200 B88
 Correlation:  0.1900 VWN1RPA + 0.8100 LYP
 Using SG-1 standard quadrature grid
 SCF converges when DIIS error is below 1.0E-08
 CPU 0.00 s  wall 0.00 s
 CPU 0.91 s  wall 0.91 s

 Q-Chem warning in module /home/scratch/svnadmin/1189b_zgan/qchem/scfman/scfman.C, line 2967:

 Can not start MOM on the first SCF cycle with SAD

 ---------------------------------------
  Cycle       Energy         DIIS Error
 ---------------------------------------
    1    -265.6860212570      5.73E-02
 CPU 0.00 s  wall 0.00 s
 CPU 0.80 s  wall 0.80 s
 MOM overlap:    20.9251666747 / 21
 MOM overlap:    20.9251666747 / 21
    2    -264.3273232402      4.36E-03
 CPU 0.00 s  wall 0.00 s
 CPU 0.83 s  wall 0.83 s
 MOM overlap:    20.9771532489 / 21
 MOM overlap:    20.9771532489 / 21
    3    -264.3258694854      4.66E-03
 CPU 0.00 s  wall 0.00 s
 CPU 0.99 s  wall 0.99 s
 MOM overlap:    20.9987380574 / 21
 MOM overlap:    20.9987380574 / 21
    4    -264.3779767817      1.12E-03
 CPU 0.00 s  wall 0.00 s
 CPU 0.85 s  wall 0.85 s
 MOM overlap:    20.9998887666 / 21
 MOM overlap:    20.9998887666 / 21
    5    -264.3803114666      3.79E-04
 CPU 0.00 s  wall 0.00 s
 CPU 0.84 s  wall 0.84 s
 MOM overlap:    20.9999980659 / 21
 MOM overlap:    20.9999980659 / 21
    6    -264.3806249016      5.47E-05
 CPU 0.00 s  wall 0.00 s
 CPU 0.83 s  wall 0.83 s
 MOM overlap:    20.9999999943 / 21
 MOM overlap:    20.9999999943 / 21
    7    -264.3806343113      1.61E-06
 CPU 0.00 s  wall 0.00 s
 CPU 1.04 s  wall 1.04 s
 MOM overlap:    20.9999999998 / 21
 MOM overlap:    20.9999999998 / 21
    8    -264.3806342785      3.98E-07
 CPU 0.00 s  wall 0.00 s
 CPU 0.78 s  wall 0.78 s
 MOM overlap:    21.0000000000 / 21
 MOM overlap:    21.0000000000 / 21
    9    -264.3806346923      4.27E-08
 CPU 0.00 s  wall 0.00 s
 CPU 0.70 s  wall 0.70 s
 MOM overlap:    21.0000000000 / 21
 MOM overlap:    21.0000000000 / 21
   10    -264.3806349677      1.20E-08
 CPU 0.00 s  wall 0.00 s
 CPU 0.58 s  wall 0.58 s
 MOM overlap:    21.0000000000 / 21
 MOM overlap:    21.0000000000 / 21
   11    -264.3806345674      5.81E-09 Convergence criterion met
 ---------------------------------------
 <S^2> = 0.0000
 SCF time:  CPU 13.54 s  wall 14.12 s
 SCF   energy in the final basis set = -264.3806345674
 Total energy in the final basis set = -264.3806345674
Max. subspace vectors    = 750
Dim. of subspace vectors = 5166
Room left in mega-array  = 7750000

 Q-Chem warning in module /home/scratch/svnadmin/1189b_zgan/qchem/libcis/ov_dim.C, line 128:

 Static memory may be insufficient to store the subspace vectors

 Direct TDDFT/TDA calculation will be performed
 Exchange:     0.2000 Hartree-Fock + 0.0800 Slater + 0.7200 B88
 Correlation:  0.1900 VWN1RPA + 0.8100 LYP
 Using SG-1 standard quadrature grid
 CIS energy converged when residual is below 10e- 6
   
 ***Using a Restricted Set of Single Excitations***
   
 UCIS calculation
   
 Excitations from core orbitals
 -------------------------------------------------------------
              Alpha Orbitals in Truncated CIS space
 -------------------------------------------------------------
     1  22  23  24  25  26  27  28  29  30  31  32  33  34  35
    36  37  38  39  40  41  42  43  44  45  46  47  48  49  50
    51  52  53  54  55  56  57  58  59  60  61  62  63  64  65
    66  67  68  69  70  71  72  73  74  75  76  77  78  79  80
    81  82  83  84  85  86  87  88  89  90  91  92  93  94  95
    96  97  98  99 100 101 102 103 104 105 106 107 108 109 110
   111 112 113 114 115 116 117 118 119 120 121 122 123 124 125
   126 127 128 129 130 131 132 133 134 135 136 137 138 139 140
   141 142 143 144
   
    Number of Occupied Orbitals=  1  out of  21
    Number of Virtual Orbitals =123  out of 123
 -------------------------------------------------------------
 -------------------------------------------------------------
              Beta Orbitals in Truncated CIS space
 -------------------------------------------------------------
     1  22  23  24  25  26  27  28  29  30  31  32  33  34  35
    36  37  38  39  40  41  42  43  44  45  46  47  48  49  50
    51  52  53  54  55  56  57  58  59  60  61  62  63  64  65
    66  67  68  69  70  71  72  73  74  75  76  77  78  79  80
    81  82  83  84  85  86  87  88  89  90  91  92  93  94  95
    96  97  98  99 100 101 102 103 104 105 106 107 108 109 110
   111 112 113 114 115 116 117 118 119 120 121 122 123 124 125
   126 127 128 129 130 131 132 133 134 135 136 137 138 139 140
   141 142 143 144
   
    Number of Occupied Orbitals=  1  out of  21
    Number of Virtual Orbitals =123  out of 123
 -------------------------------------------------------------
 Number of Roots adjusted to:          30
 Number of Roots adjusted to:          30
 ---------------------------------------------------
 Iter    Rts Conv    Rts Left    Ttl Dev     Max Dev
 ---------------------------------------------------
   1         0          30      0.011541    0.001385
   2         5          25      0.010898    0.001293
   3        17          13      0.010891    0.001293
   4        28           2      0.010891    0.001293
   5        30           0      0.010891    0.001293    Roots Converged
 ---------------------------------------------------
 
 
 ---------------------------------------------------
         TDDFT/TDA Excitation Energies              
 ---------------------------------------------------

 Excited state   1: excitation energy (eV) =  385.7702
    Total energy for state   1:   -250.203840592089
    <S**2>     :  1.9932
    Trans. Mom.:  0.0000 X   0.0000 Y   0.0000 Z
    Strength   :  0.0000
    D(  1) --> V(  1) amplitude =  0.7346 alpha
    D(  1) --> V(  1) amplitude = -0.6757 beta

 Excited state   2: excitation energy (eV) =  386.2879
    Total energy for state   2:   -250.184813682936
    <S**2>     :  0.0047
    Trans. Mom.:  0.0000 X   0.0000 Y   0.0000 Z
    Strength   :  0.0000
    D(  1) --> V(  1) amplitude =  0.6752 alpha
    D(  1) --> V(  1) amplitude =  0.7366 beta

 Excited state   3: excitation energy (eV) =  387.7175
    Total energy for state   3:   -250.132279469218
    <S**2>     :  1.0219
    Trans. Mom.:  0.0000 X   0.0000 Y   0.0000 Z
    Strength   :  0.0000
    D(  1) --> V(  2) amplitude =  0.9992 alpha

 Excited state   4: excitation energy (eV) =  387.7275
    Total energy for state   4:   -250.131910249942
    <S**2>     :  0.9781
    Trans. Mom.:  0.0000 X   0.0000 Y   0.0000 Z
    Strength   :  0.0000
    D(  1) --> V(  2) amplitude =  0.9999 beta

 Excited state   5: excitation energy (eV) =  389.4870
    Total energy for state   5:   -250.067248803574
    <S**2>     :  1.8555
    Trans. Mom.:  0.0000 X   0.0015 Y   0.0000 Z
    Strength   :  0.0000
    D(  1) --> V(  3) amplitude =  0.8646 alpha
    D(  1) --> V(  3) amplitude = -0.4891 beta

 Excited state   6: excitation energy (eV) =  389.5148
    Total energy for state   6:   -250.066230141485
    <S**2>     :  0.1438
    Trans. Mom.:  0.0000 X   0.0018 Y   0.0000 Z
    Strength   :  0.0000
    D(  1) --> V(  3) amplitude =  0.4915 alpha
    D(  1) --> V(  3) amplitude =  0.8680 beta

 Excited state   7: excitation energy (eV) =  390.0104
    Total energy for state   7:   -250.048015915901
    <S**2>     :  0.9998
    Trans. Mom.:  0.0000 X   0.0000 Y   0.0000 Z
    Strength   :  0.0000
    D(  1) --> V(  4) amplitude =  0.9989 alpha

 Excited state   8: excitation energy (eV) =  390.0198
    Total energy for state   8:   -250.047671123611
    <S**2>     :  1.0002
    Trans. Mom.:  0.0000 X   0.0000 Y   0.0000 Z
    Strength   :  0.0000
    D(  1) --> V(  4) amplitude =  0.9999 beta

 Excited state   9: excitation energy (eV) =  390.3996
    Total energy for state   9:   -250.033713840568
    <S**2>     :  1.8729
    Trans. Mom.:  0.0000 X   0.0000 Y   0.0000 Z
    Strength   :  0.0000
    D(  1) --> V(  5) amplitude =  0.8597 alpha
    D(  1) --> V(  5) amplitude = -0.5070 beta

 Excited state  10: excitation energy (eV) =  390.4317
    Total energy for state  10:   -250.032533871885
    <S**2>     :  0.1266
    Trans. Mom.:  0.0000 X   0.0000 Y   0.0000 Z
    Strength   :  0.0000
    D(  1) --> V(  5) amplitude =  0.5068 alpha
    D(  1) --> V(  5) amplitude =  0.8615 beta

 Excited state  11: excitation energy (eV) =  390.6082
    Total energy for state  11:   -250.026048647474
    <S**2>     :  1.9765
    Trans. Mom.:  0.0000 X  -0.0016 Y   0.0000 Z
    Strength   :  0.0000
    D(  1) --> V(  7) amplitude =  0.7640 alpha
    D(  1) --> V(  7) amplitude = -0.6318 beta

 Excited state  12: excitation energy (eV) =  390.7213
    Total energy for state  12:   -250.021891475985
    <S**2>     :  0.0198
    Trans. Mom.:  0.0000 X   0.0007 Y   0.0000 Z
    Strength   :  0.0000
    D(  1) --> V(  7) amplitude =  0.6313 alpha
    D(  1) --> V(  7) amplitude =  0.7671 beta

 Excited state  13: excitation energy (eV) =  390.8412
    Total energy for state  13:   -250.017486221536
    <S**2>     :  1.9848
    Trans. Mom.:  0.0000 X   0.0000 Y  -0.0077 Z
    Strength   :  0.0006
    D(  1) --> V(  9) amplitude =  0.6574 alpha
    D(  1) --> V( 14) amplitude =  0.3682 alpha
    D(  1) --> V(  9) amplitude = -0.5669 beta
    D(  1) --> V( 14) amplitude = -0.3251 beta

 Excited state  14: excitation energy (eV) =  390.8576
    Total energy for state  14:   -250.016881648689
    <S**2>     :  1.3614
    Trans. Mom.:  0.0056 X   0.0000 Y   0.0000 Z
    Strength   :  0.0003
    D(  1) --> V(  6) amplitude =  0.9811 alpha
    D(  1) --> V(  6) amplitude = -0.1842 beta

 Excited state  15: excitation energy (eV) =  390.8576
    Total energy for state  15:   -250.016880396700
    <S**2>     :  1.0432
    Trans. Mom.:  0.0000 X   0.0000 Y   0.0000 Z
    Strength   :  0.0000
    D(  1) --> V(  8) amplitude =  0.9988 alpha

 Excited state  16: excitation energy (eV) =  390.8646
    Total energy for state  16:   -250.016623921029
    <S**2>     :  0.9568
    Trans. Mom.:  0.0000 X   0.0000 Y   0.0000 Z
    Strength   :  0.0000
    D(  1) --> V(  8) amplitude =  0.9995 beta

 Excited state  17: excitation energy (eV) =  390.8729
    Total energy for state  17:   -250.016320164187
    <S**2>     :  0.6383
    Trans. Mom.:  0.0060 X   0.0000 Y   0.0000 Z
    Strength   :  0.0003
    D(  1) --> V(  6) amplitude =  0.1840 alpha
    D(  1) --> V(  6) amplitude =  0.9829 beta

 Excited state  18: excitation energy (eV) =  391.1202
    Total energy for state  18:   -250.007231958433
    <S**2>     :  0.0125
    Trans. Mom.:  0.0000 X   0.0000 Y  -0.0560 Z
    Strength   :  0.0300
    D(  1) --> V(  9) amplitude =  0.5984 alpha
    D(  1) --> V( 14) amplitude =  0.2599 alpha
    D(  1) --> V(  9) amplitude =  0.6916 beta
    D(  1) --> V( 14) amplitude =  0.3073 beta

 Excited state  19: excitation energy (eV) =  391.4215
    Total energy for state  19:   -249.996158632791
    <S**2>     :  1.8881
    Trans. Mom.:  0.0000 X   0.0010 Y   0.0000 Z
    Strength   :  0.0000
    D(  1) --> V( 10) amplitude =  0.8497 alpha
    D(  1) --> V( 10) amplitude = -0.5228 beta

 Excited state  20: excitation energy (eV) =  391.4576
    Total energy for state  20:   -249.994832688304
    <S**2>     :  0.1103
    Trans. Mom.:  0.0000 X  -0.0011 Y   0.0000 Z
    Strength   :  0.0000
    D(  1) --> V( 10) amplitude =  0.5189 alpha
    D(  1) --> V( 10) amplitude =  0.8497 beta

 Excited state  21: excitation energy (eV) =  391.7200
    Total energy for state  21:   -249.985188803953
    <S**2>     :  1.0023
    Trans. Mom.:  0.0000 X   0.0000 Y   0.0000 Z
    Strength   :  0.0000
    D(  1) --> V( 11) amplitude =  0.9999 alpha

 Excited state  22: excitation energy (eV) =  391.7229
    Total energy for state  22:   -249.985083192777
    <S**2>     :  0.9977
    Trans. Mom.:  0.0000 X   0.0000 Y   0.0000 Z
    Strength   :  0.0000
    D(  1) --> V( 11) amplitude =  1.0000 beta

 Excited state  23: excitation energy (eV) =  392.0605
    Total energy for state  23:   -249.972676355267
    <S**2>     :  1.9615
    Trans. Mom.:  0.0000 X   0.0000 Y   0.0000 Z
    Strength   :  0.0000
    D(  1) --> V( 12) amplitude =  0.7883 alpha
    D(  1) --> V( 12) amplitude = -0.6091 beta

 Excited state  24: excitation energy (eV) =  392.1365
    Total energy for state  24:   -249.969882083561
    <S**2>     :  0.0355
    Trans. Mom.:  0.0000 X   0.0000 Y   0.0000 Z
    Strength   :  0.0000
    D(  1) --> V( 12) amplitude =  0.6084 alpha
    D(  1) --> V( 12) amplitude =  0.7924 beta

 Excited state  25: excitation energy (eV) =  392.1807
    Total energy for state  25:   -249.968258133998
    <S**2>     :  1.7252
    Trans. Mom.:  0.0000 X   0.0000 Y   0.0000 Z
    Strength   :  0.0000
    D(  1) --> V( 13) amplitude =  0.9151 alpha
    D(  1) --> V( 13) amplitude = -0.3959 beta

 Excited state  26: excitation energy (eV) =  392.1820
    Total energy for state  26:   -249.968212401064
    <S**2>     :  1.9942
    Trans. Mom.:  0.0000 X   0.0000 Y  -0.0022 Z
    Strength   :  0.0000
    D(  1) --> V(  9) amplitude = -0.3655 alpha
    D(  1) --> V( 14) amplitude =  0.6473 alpha
    D(  1) --> V(  9) amplitude =  0.3308 beta
    D(  1) --> V( 14) amplitude = -0.5811 beta

 Excited state  27: excitation energy (eV) =  392.2087
    Total energy for state  27:   -249.967228052258
    <S**2>     :  0.2733
    Trans. Mom.:  0.0000 X   0.0000 Y   0.0000 Z
    Strength   :  0.0000
    D(  1) --> V( 13) amplitude =  0.3955 alpha
    D(  1) --> V( 13) amplitude =  0.9177 beta

 Excited state  28: excitation energy (eV) =  392.2370
    Total energy for state  28:   -249.966190953820
    <S**2>     :  0.0058
    Trans. Mom.:  0.0000 X   0.0000 Y  -0.0275 Z
    Strength   :  0.0073
    D(  1) --> V(  9) amplitude = -0.2670 alpha
    D(  1) --> V( 14) amplitude =  0.6131 alpha
    D(  1) --> V(  9) amplitude = -0.3013 beta
    D(  1) --> V( 14) amplitude =  0.6796 beta

 Excited state  29: excitation energy (eV) =  392.9511
    Total energy for state  29:   -249.939947804086
    <S**2>     :  1.0058
    Trans. Mom.:  0.0000 X   0.0000 Y   0.0000 Z
    Strength   :  0.0000
    D(  1) --> V( 15) amplitude =  0.9986 alpha

 Excited state  30: excitation energy (eV) =  392.9578
    Total energy for state  30:   -249.939700332578
    <S**2>     :  0.9943
    Trans. Mom.:  0.0000 X   0.0000 Y   0.0000 Z
    Strength   :  0.0000
    D(  1) --> V( 15) amplitude =  0.9996 beta
 
 ---------------------------------------------------
  Timing summary (seconds)
  CPU time         88.31s
  System time       0.00s
  Wall time        89.02s
 
 --------------------------------------------------------------
             Orbital Energies (a.u.) and Symmetries
 --------------------------------------------------------------
 
 Alpha MOs, Unrestricted
 -- Occupied --                  
-14.344 -14.344 -10.230 -10.230 -10.229 -10.229  -0.994  -0.920
  1 B2u   1 Ag    1 B3u   2 Ag    2 B2u   1 B1g   3 Ag    3 B2u                
 -0.792  -0.676  -0.668  -0.541  -0.529  -0.503  -0.454  -0.437
  2 B3u   4 Ag    2 B1g   5 Ag    3 B3u   4 B2u   4 B3u   1 B1u                
 -0.402  -0.342  -0.326  -0.291  -0.267
  3 B1g   1 B3g   5 B2u   1 B2g   6 Ag                                         
 -- Virtual --                   
 -0.073  -0.040   0.002   0.017   0.034   0.048   0.048   0.053
  2 B1u   1 Au    7 Ag    5 B3u   6 B2u   4 B1g   8 Ag    3 B1u                
  0.074   0.075   0.082   0.095   0.098   0.121   0.130   0.137
  2 B3g   9 Ag    2 B2g   7 B2u   6 B3u   3 B3g   7 B3u   2 Au                 
  0.138   0.147   0.167   0.187   0.197   0.199   0.202   0.205
  8 B2u   5 B1g  10 Ag    8 B3u   4 B1u   6 B1g   9 B2u  11 Ag                 
  0.210   0.238   0.250   0.263   0.271   0.277   0.290   0.299
  7 B1g  12 Ag    4 B3g  10 B2u  13 Ag    9 B3u  10 B3u   8 B1g                
  0.314   0.339   0.357   0.447   0.471   0.498   0.511   0.536
 11 B2u  12 B2u   9 B1g  14 Ag   13 B2u  11 B3u   5 B1u  15 Ag                 
  0.539   0.546   0.571   0.587   0.599   0.626   0.677   0.717
 10 B1g   3 B2g  12 B3u   5 B3g   3 Au   11 B1g  14 B2u  16 Ag                 
  0.723   0.756   0.768   0.789   0.804   0.817   0.823   0.844
 15 B2u  16 B2u  12 B1g  13 B3u  17 Ag   13 B1g  14 B3u   6 B1u                
  0.898   0.919   0.938   0.965   0.976   0.993   1.053   1.055
 18 Ag    6 B3g  17 B2u  14 B1g  18 B2u  15 B3u   4 B2g   7 B1u                
  1.095   1.154   1.201   1.280   1.336   1.355   1.376   1.463
 15 B1g  19 Ag    5 B2g   8 B1u  20 Ag    4 Au    7 B3g  19 B2u                
  1.524   1.577   1.578   1.636   1.700   1.817   1.818   1.859
 16 B3u  20 B2u  21 Ag   17 B3u  22 Ag    5 Au   18 B3u  16 B1g                
  1.913   1.978   2.085   2.188   2.246   2.253   2.287   2.293
  8 B3g  21 B2u  17 B1g  22 B2u   9 B1u  18 B1g  23 B2u  23 Ag                 
  2.304   2.360   2.424   2.590   2.636   2.706   2.764   2.769
  6 B2g   9 B3g  19 B3u  24 Ag    6 Au   10 B1u  25 Ag   20 B3u                
  2.776   2.781   2.833   2.869   2.924   2.971   3.174   3.200
 24 B2u   7 B2g  19 B1g   7 Au   10 B3g  20 B1g  26 Ag   21 B3u                
  3.351   3.387   3.415   3.435   3.463   3.839   3.897   3.898
 25 B2u  22 B3u  21 B1g  27 Ag   26 B2u  11 B1u  22 B1g  27 B2u                
  3.928   4.217   4.565   4.756   5.300  23.551  23.675  23.983
 11 B3g  28 Ag   28 B2u  23 B3u  23 B1g  29 Ag   24 B3u  24 B1g                
 23.998  35.463  35.636
 29 B2u  30 Ag   30 B2u                                                        
 
 Beta MOs, Unrestricted
 -- Occupied --                  
-14.344 -14.344 -10.230 -10.230 -10.229 -10.229  -0.994  -0.920
  1 B2u   1 Ag    1 B3u   2 Ag    2 B2u   1 B1g   3 Ag    3 B2u                
 -0.792  -0.676  -0.668  -0.541  -0.529  -0.503  -0.454  -0.437
  2 B3u   4 Ag    2 B1g   5 Ag    3 B3u   4 B2u   4 B3u   1 B1u                
 -0.402  -0.342  -0.326  -0.291  -0.267
  3 B1g   1 B3g   5 B2u   1 B2g   6 Ag                                         
 -- Virtual --                   
 -0.073  -0.040   0.002   0.017   0.034   0.048   0.048   0.053
  2 B1u   1 Au    7 Ag    5 B3u   6 B2u   4 B1g   8 Ag    3 B1u                
  0.074   0.075   0.082   0.095   0.098   0.121   0.130   0.137
  2 B3g   9 Ag    2 B2g   7 B2u   6 B3u   3 B3g   7 B3u   2 Au                 
  0.138   0.147   0.167   0.187   0.197   0.199   0.202   0.205
  8 B2u   5 B1g  10 Ag    8 B3u   4 B1u   6 B1g   9 B2u  11 Ag                 
  0.210   0.238   0.250   0.263   0.271   0.277   0.290   0.299
  7 B1g  12 Ag    4 B3g  10 B2u  13 Ag    9 B3u  10 B3u   8 B1g                
  0.314   0.339   0.357   0.447   0.471   0.498   0.511   0.536
 11 B2u  12 B2u   9 B1g  14 Ag   13 B2u  11 B3u   5 B1u  15 Ag                 
  0.539   0.546   0.571   0.587   0.599   0.626   0.677   0.717
 10 B1g   3 B2g  12 B3u   5 B3g   3 Au   11 B1g  14 B2u  16 Ag                 
  0.723   0.756   0.768   0.789   0.804   0.817   0.823   0.844
 15 B2u  16 B2u  12 B1g  13 B3u  17 Ag   13 B1g  14 B3u   6 B1u                
  0.898   0.919   0.938   0.965   0.976   0.993   1.053   1.055
 18 Ag    6 B3g  17 B2u  14 B1g  18 B2u  15 B3u   4 B2g   7 B1u                
  1.095   1.154   1.201   1.280   1.336   1.355   1.376   1.463
 15 B1g  19 Ag    5 B2g   8 B1u  20 Ag    4 Au    7 B3g  19 B2u                
  1.524   1.577   1.578   1.636   1.700   1.817   1.818   1.859
 16 B3u  20 B2u  21 Ag   17 B3u  22 Ag    5 Au   18 B3u  16 B1g                
  1.913   1.978   2.085   2.188   2.246   2.253   2.287   2.293
  8 B3g  21 B2u  17 B1g  22 B2u   9 B1u  18 B1g  23 B2u  23 Ag                 
  2.304   2.360   2.424   2.590   2.636   2.706   2.764   2.769
  6 B2g   9 B3g  19 B3u  24 Ag    6 Au   10 B1u  25 Ag   20 B3u                
  2.776   2.781   2.833   2.869   2.924   2.971   3.174   3.200
 24 B2u   7 B2g  19 B1g   7 Au   10 B3g  20 B1g  26 Ag   21 B3u                
  3.351   3.387   3.415   3.435   3.463   3.839   3.897   3.898
 25 B2u  22 B3u  21 B1g  27 Ag   26 B2u  11 B1u  22 B1g  27 B2u                
  3.928   4.217   4.565   4.756   5.300  23.551  23.675  23.983
 11 B3g  28 Ag   28 B2u  23 B3u  23 B1g  29 Ag   24 B3u  24 B1g                
 23.998  35.463  35.636
 29 B2u  30 Ag   30 B2u                                                        
 --------------------------------------------------------------
 
          Ground-State Mulliken Net Atomic Charges

     Atom                 Charge (a.u.)    Spin (a.u.)
  --------------------------------------------------------
      1 C                    -0.220857       0.000000
      2 C                    -0.220857       0.000000
      3 N                    -0.017302       0.000000
      4 N                    -0.017302       0.000000
      5 C                    -0.220857       0.000000
      6 C                    -0.220857       0.000000
      7 H                     0.229508       0.000000
      8 H                     0.229508       0.000000
      9 H                     0.229508       0.000000
     10 H                     0.229508       0.000000
  --------------------------------------------------------
  Sum of atomic charges =     0.000000
  Sum of spin   charges =     0.000000

 -----------------------------------------------------------------
                    Cartesian Multipole Moments
 -----------------------------------------------------------------
    Charge (ESU x 10^10)
                 0.0000
    Dipole Moment (Debye)
         X       0.0000      Y       0.0000      Z       0.0000
       Tot       0.0000
    Quadrupole Moments (Debye-Ang)
        XX     -26.8948     XY       0.0000     YY     -42.1724
        XZ       0.0000     YZ       0.0000     ZZ     -36.4974
    Octopole Moments (Debye-Ang^2)
       XXX       0.0000    XXY       0.0000    XYY       0.0000
       YYY       0.0000    XXZ       0.0000    XYZ       0.0000
       YYZ       0.0000    XZZ       0.0000    YZZ       0.0000
       ZZZ       0.0000
    Hexadecapole Moments (Debye-Ang^3)
      XXXX    -234.8277   XXXY       0.0000   XXYY     -71.9975
      XYYY       0.0000   YYYY    -312.5791   XXXZ       0.0000
      XXYZ       0.0000   XYYZ       0.0000   YYYZ       0.0000
      XXZZ     -55.6303   XYZZ       0.0000   YYZZ     -53.3259
      XZZZ       0.0000   YZZZ       0.0000   ZZZZ     -40.0246
 -----------------------------------------------------------------
Archival summary:
1\1\tp-linux1\SP\ProcedureUnspecified\BasisUnspecified\244\thomas\TueJan1713:58:552017TueJan1713:58:552017\0\\#,ProcedureUnspecified,BasisUnspecified,\\0,1\N\C,1,1.34606\H,2,1.0834,1,116.808\C,1,1.34606,2,115.185,3,-180,0\H,4,1.0834,1,116.808,2,-180,0\C,2,1.39225,1,122.408,3,-180,0\H,6,1.0834,2,120.785,1,-180,0\N,6,1.34606,2,122.408,1,0,0\C,8,1.34606,6,115.185,2,0,0\H,9,1.0834,8,116.808,6,180,0\\\@

 Total job time:  103.84s(wall), 102.08s(cpu) 
 Tue Jan 17 13:58:55 2017

        *************************************************************
        *                                                           *
        *  Thank you very much for using Q-Chem.  Have a nice day.  *
        *                                                           *
        *************************************************************


0 sent ACK to 0 
now end server 0 ... 
cleanup process ... done
remove work dirs /scratch/qchem/qchem8507.0 -- /scratch/qchem/qchem8507.0
rm -rf /scratch/qchem/qchem8507.0
rm -rf /scratch/qchem/qchem8507
