You are running Q-Chem version: 4.3

#
# job setting
#
local host:  tp-linux1
current dir: /home/thomas/fs-XAS-test01/pyrazine/qchem
input file:  21-22_ADC_6-311+G_pyr.inp
output file: 
nprocs     : 1
nthreads   : 8
#
# qchem installation setting
#
QC:          /mnt/software/qchem
QCAUX:       /mnt/software/qchem/qcaux
QCPROG:      /mnt/software/qchem/exe/qcprog.exe
QCPROG_S:    /mnt/software/qchem/exe/qcprog.exe_s
PARALLEL:    -DPARALLEL
QCMPI:       mpich
#
# qchem directory setting
#
qcrun:       qchem7586
QCSCRATCH:   /scratch/qchem
QCLOCALSCR:  
QCTMPDIR:    /scratch/qchem
QCFILEPREF:  /scratch/qchem/qchem7586
QCSAVEDIR:   
workdirs:    /scratch/qchem/qchem7586
workdir0:    /scratch/qchem/qchem7586
partmpdirs =  
#
# parallel setting
#
QCRSH:           ssh
QCMPI:           mpich
QCMPIRUN:        /mnt/software/qchem/bin/mpi/mpirun_qchem
QCMACHINEFILE:   /mnt/software/qchem/bin/mpi/machines
127.0.1.1 32

#
# env setting
#
exported envs:   QC QCAUX QCSCRATCH QCRUNNAME QCFILEPREF QCPROG QCPROG_S GUIFILE

Running Job 1 of 3 21-22_ADC_6-311+G_pyr.inp
qchem 21-22_ADC_6-311+G_pyr.inp_7586.0 /scratch/qchem/qchem7586/ 1
/mnt/software/qchem/bin/mpi/mpirun_qchem -machinefile /mnt/software/qchem/bin/mpi/machines -np 1 /mnt/software/qchem/exe/qcprog.exe 21-22_ADC_6-311+G_pyr.inp_7586.0 /scratch/qchem/qchem7586/

Process 0 of 1 is on tp-linux1 - thread support 0
initial socket setup ...start
initial socket setup ...done 
now start server 0 ... 

cmd = ssh tp-linux1 /mnt/software/qchem/bin/get_hostid 73159783 > /scratch/qchem/qchem7586/lic.dat
                  Welcome to Q-Chem
     A Quantum Leap Into The Future Of Chemistry


 Q-Chem 4.3, Q-Chem, Inc., Pleasanton, CA (2015)

 Y. Shao,  Z. Gan,  E. Epifanovsky,  A. T. B. Gilbert,  M. Wormit,  
 J. Kussmann,  A. W. Lange,  A. Behn,  J. Deng,  X. Feng,  D. Ghosh,  
 M. Goldey,  P. R. Horn,  L. D. Jacobson,  I. Kaliman,  R. Z. Khaliullin,  
 T. Kus,  A. Landau,  J. Liu,  E. I. Proynov,  Y. M. Rhee,  R. M. Richard,  
 M. A. Rohrdanz,  R. P. Steele,  E. J. Sundstrom,  H. L. Woodcock III,  
 P. M. Zimmerman,  D. Zuev,  B. Albrecht,  E. Alguire,  B. Austin,  
 S. A. Baeppler,  G. J. O. Beran,  Y. A. Bernard,  E. Berquist,  
 K. Brandhorst,  K. B. Bravaya,  S. T. Brown,  D. Casanova,  C.-M. Chang,  
 Y. Chen,  S. H. Chien,  K. D. Closser,  D. L. Crittenden,  M. Diedenhofen,  
 R. A. DiStasio Jr.,  H. Do,  A. D. Dutoi,  R. G. Edgar,  P.-T. Fang,  
 S. Fatehi,  Q. Feng,  L. Fusti-Molnar,  A. Ghysels,  
 A. Golubeva-Zadorozhnaya,  J. Gomes,  A. Gunina,  M. W. D. Hanson-Heine,  
 P. H. P. Harbach,  A. W. Hauser,  E. G. Hohenstein,  Z. C. Holden,  K. Hui,  
 T.-C. Jagau,  H. Ji,  B. Kaduk,  K. Khistyaev,  Jaehoon Kim,  Jihan Kim,  
 R. A. King,  P. Klunzinger,  D. Kosenkov,  T. Kowalczyk,  C. M. Krauter,  
 K. U. Lao,  A. Laurent,  K. V. Lawler,  S. Lehtola,  S. V. Levchenko,  
 C. Y. Lin,  Y.-S. Lin,  F. Liu,  E. Livshits,  R. C. Lochan,  A. Luenser,  
 P. Manohar,  S. F. Manzer,  S.-P. Mao,  N. Mardirossian,  A. V. Marenich,  
 L. A. Martinez-Martinez,  S. A. Maurer,  N. J. Mayhall,  K. Nanda,  
 C. M. Oana,  R. Olivares-Amaya,  D. P. O'Neill,  J. A. Parkhill,  
 T. M. Perrine,  R. Peverati,  P. A. Pieniazek,  F. Plasser,  A. Prociuk,  
 D. R. Rehn,  E. Rosta,  N. J. Russ,  N. Sergueev,  S. M. Sharada,  
 S. Sharma,  D. W. Small,  A. Sodt,  T. Stauch,  T. Stein,  D. Stuck,  
 Y.-C. Su,  A. J. W. Thom,  T. Tsuchimochi,  L. Vogt,  O. Vydrov,  T. Wang,  
 M. A. Watson,  J. Wenzel,  A. White,  C. F. Williams,  V. Vanovschi,  
 S. Yeganeh,  S. R. Yost,  Z.-Q. You,  I. Y. Zhang,  X. Zhang,  Y. Zhao,  
 B. R. Brooks,  G. K. L. Chan,  D. M. Chipman,  C. J. Cramer,  
 W. A. Goddard III,  M. S. Gordon,  W. J. Hehre,  A. Klamt,  
 H. F. Schaefer III,  M. W. Schmidt,  C. D. Sherrill,  D. G. Truhlar,  
 A. Warshel,  X. Xu,  A. Aspuru-Guzik,  R. Baer,  A. T. Bell,  N. A. Besley,  
 J.-D. Chai,  A. Dreuw,  B. D. Dunietz,  T. R. Furlani,  S. R. Gwaltney,  
 C.-P. Hsu,  Y. Jung,  J. Kong,  D. S. Lambrecht,  W. Liang,  C. Ochsenfeld,  
 V. A. Rassolov,  L. V. Slipchenko,  J. E. Subotnik,  T. Van Voorhis,  
 J. M. Herbert,  A. I. Krylov,  P. M. W. Gill,  M. Head-Gordon

 Contributors to earlier versions of Q-Chem not listed above: 
 R. D. Adamson,  J. Baker,  E. F. C. Byrd,  A. K. Chakraborty,  C.-L. Cheng,  
 H. Dachsel,  R. J. Doerksen,  G. Hawkins,  A. Heyden,  S. Hirata,  
 G. Kedziora,  F. J. Keil,  C. Kelley,  P. P. Korambath,  W. Kurlancheek,  
 A. M. Lee,  M. S. Lee,  D. Liotard,  I. Lotan,  P. E. Maslen,  N. Nair,  
 D. Neuhauser,  R. Olson,  B. Peters,  J. Ritchie,  N. E. Schultz,  
 N. Shenvi,  A. C. Simmonett,  K. S. Thanthiriwatte,  Q. Wu,  W. Zhang

 Please cite Q-Chem as follows:
 Y. Shao et al., Mol. Phys. 113, 184-215 (2015)
 DOI: 10.1080/00268976.2014.952696

 Q-Chem 4.3.0 for Intel X86 Linux

 Parts of Q-Chem use Armadillo 5.200.1 (Boston Tea Smuggler).
 http://arma.sourceforge.net/

 Q-Chem begins on Mon Jan 16 17:09:49 2017  

Host: 
0

     Scratch files written to /scratch/qchem/qchem7586//
 Nov1815 1189b_ 19540  19532 5443   
 Parallel job on  1  processors
Processing $rem in /mnt/software/qchem/config/preferences.
 MEM_TOTAL  2000 

Checking the input file for inconsistencies... 	...done.

--------------------------------------------------------------
User input:
--------------------------------------------------------------
$comment
XAS calculation for the 2b valence excited for water using cvs-adc(2)-x + 6-311+G* basis set
job 1 - determination of HF orbitals
$end

$molecule
0 1
C    -0.696126    -1.136419     0.000000
C     0.696126    -1.136419     0.000000
N    -1.417532     0.000000     0.000000
N     1.417532     0.000000     0.000000
C     0.696126     1.136419     0.000000
C    -0.696126     1.136419     0.000000
H     1.250625     2.067160     0.000000
H    -1.250625     2.067160     0.000000
H     1.250625    -2.067160     0.000000
H    -1.250625    -2.067160     0.000000
$end

$rem
jobtype      sp
exchange     hf
basis        6-311+G*
unrestricted true
$end

--------------------------------------------------------------
 ----------------------------------------------------------------
             Standard Nuclear Orientation (Angstroms)
    I     Atom           X                Y                Z
 ----------------------------------------------------------------
    1      C       1.1364190000    -0.6961260000     0.0000000000
    2      C       1.1364190000     0.6961260000     0.0000000000
    3      N       0.0000000000    -1.4175320000     0.0000000000
    4      N       0.0000000000     1.4175320000     0.0000000000
    5      C      -1.1364190000     0.6961260000     0.0000000000
    6      C      -1.1364190000    -0.6961260000     0.0000000000
    7      H      -2.0671600000     1.2506250000     0.0000000000
    8      H      -2.0671600000    -1.2506250000     0.0000000000
    9      H       2.0671600000     1.2506250000     0.0000000000
   10      H       2.0671600000    -1.2506250000     0.0000000000
 ----------------------------------------------------------------
 Molecular Point Group                 D2h   NOp =  8
 Largest Abelian Subgroup              D2h   NOp =  8
 Nuclear Repulsion Energy =   207.9974042823 hartrees
 There are       21 alpha and       21 beta electrons
 Requested basis set is 6-311+G(d)
 There are 48 shells and 144 basis functions

 Total QAlloc Memory Limit   2000 MB
 Mega-Array Size        61 MB
 MEM_STATIC part        62 MB

                       Distance Matrix (Angstroms)
             C (  1)   C (  2)   N (  3)   N (  4)   C (  5)   C (  6)
   C (  2)  1.392252
   N (  3)  1.346059  2.399791
   N (  4)  2.399791  1.346059  2.835064
   C (  5)  2.665363  2.272838  2.399791  1.346059
   C (  6)  2.272838  2.665363  1.346059  2.399791  1.392252
   H (  7)  3.748701  3.251213  3.375235  2.073887  1.083396  2.157804
   H (  8)  3.251213  3.748701  2.073887  3.375235  2.157804  1.083396
   H (  9)  2.157804  1.083396  3.375235  2.073887  3.251213  3.748701
   H ( 10)  1.083396  2.157804  2.073887  3.375235  3.748701  3.251213
             H (  7)   H (  8)   H (  9)
   H (  8)  2.501250
   H (  9)  4.134320  4.832065
   H ( 10)  4.832065  4.134320  2.501250
 
 tim1(1): 
  3.999999999999997E-003
 tim1(2): 
  0.000000000000000E+000
 A cutoff of  1.0D-08 yielded   1110 shell pairs
 There are     10445 function pairs (     11350 Cartesian)
 
 -------------------------------------------------------
 OpenMP Integral Computing Module                       
 Release: version 1.0, May 2013, Q-Chem Inc. Pittsburgh 
 -------------------------------------------------------
 Integral Job Info:
 Integral job number is                      11
 Integral operator is                         1
 short-range coefficients                     0
 long-range coefficients              100000000
 Omega coefficients                           0
 if combine SR and LR in K                    0
 Integral screening is                        0
 Integral computing path is                   2
 max size of driver memory is            800000
 size of driver memory is                593474
 size of scratch memory is              2260544
 max col of scratch BK array               1296
 max len of scratch array in speh3          155
 max len of scratch index in speh4           18
 max int batch size is                      520
 min int batch size is                       52
 fixed nKL is                                52
 max L of basis functions is                  2
 order of int derivative is                   0
 number of shells is                         48
 number of basis is                         150
 number of cartesian basis is               150
 number of contracted shell pairs          1110
 number of primitive shell pairs           3292
 maxK2 (contraction) of shell pair           36
 max number of K2 of shell pair               1
 max number of CS2 of shell pair            179
 max number of PS2 of shell pair            636
 mem total for path MDJ                   29946
 -------------------------------------------------------
 Smallest overlap matrix eigenvalue = 4.10E-05

 Q-Chem warning in module /home/scratch/svnadmin/1189b_zgan/qchem/stvman/mkSTV.C, line 251:

 Overlap eigenvalue is smaller than square root of threshold


 Scale SEOQF with 1.000000e-01/1.000000e-01/1.000000e-01

 Standard Electronic Orientation quadrupole field applied
 Nucleus-field energy     =     0.0000000050 hartrees
 Guess from superposition of atomic densities
 Warning:  Energy on first SCF cycle will be non-variational
 An unrestricted Hartree-Fock SCF calculation will be
 performed using Pulay DIIS extrapolation
 SCF converges when DIIS error is below 1.0E-05
 using 8 threads for integral computing 
 ---------------------------------------
  Cycle       Energy         DIIS Error
 ---------------------------------------
    1    -264.9303541561      6.12E-02
    2    -262.6621313708      4.45E-03
    3    -262.7247826910      1.74E-03
    4    -262.7320283009      7.73E-04
    5    -262.7337673578      1.39E-04
    6    -262.7338517597      4.74E-05
    7    -262.7338675885      1.82E-05
    8    -262.7338701910      3.16E-06 Convergence criterion met
 ---------------------------------------
 <S^2> = 0.0000
 SCF time:  CPU 11.72 s  wall 2.36 s
 SCF   energy in the final basis set = -262.7338701910
 Total energy in the final basis set = -262.7338701910
 
 --------------------------------------------------------------
             Orbital Energies (a.u.) and Symmetries
 --------------------------------------------------------------
 
 Alpha MOs, Unrestricted
 -- Occupied --                  
-15.601 -15.601 -11.292 -11.292 -11.291 -11.291  -1.309  -1.220
  1 B2u   1 Ag    1 B3u   2 Ag    2 B2u   1 B1g   3 Ag    3 B2u                
 -1.059  -0.909  -0.890  -0.731  -0.706  -0.682  -0.617  -0.574
  2 B3u   4 Ag    2 B1g   5 Ag    3 B3u   4 B2u   4 B3u   1 B1u                
 -0.554  -0.504  -0.435  -0.419  -0.363
  3 B1g   5 B2u   1 B3g   6 Ag    1 B2g                                        
 -- Virtual --                   
  0.064   0.064   0.074   0.084   0.099   0.100   0.112   0.119
  7 Ag    2 B1u   5 B3u   6 B2u   4 B1g   1 Au    8 Ag    3 B1u                
  0.128   0.141   0.142   0.146   0.147   0.186   0.187   0.204
  2 B3g   9 Ag    2 B2g   7 B2u   6 B3u   5 B1g   8 B2u   7 B3u                
  0.206   0.252   0.272   0.284   0.302   0.305   0.311   0.311
  2 Au    6 B1g  10 Ag    4 B1u   8 B3u   9 B2u  11 Ag    3 B3g                
  0.323   0.335   0.349   0.365   0.369   0.413   0.414   0.417
  7 B1g  12 Ag    4 B3g  10 B2u   9 B3u  13 Ag    8 B1g  11 B2u                
  0.461   0.517   0.532   0.611   0.662   0.684   0.699   0.724
 10 B3u  12 B2u   9 B1g  14 Ag   13 B2u  11 B3u   5 B1u   3 B2g                
  0.734   0.735   0.742   0.787   0.795   0.836   0.910   0.930
 15 Ag   12 B3u  10 B1g   5 B3g   3 Au   11 B1g  14 B2u  16 Ag                 
  0.930   0.968   0.969   0.973   1.009   1.041   1.061   1.078
 15 B2u  13 B3u  12 B1g  16 B2u  17 Ag   13 B1g  14 B3u   6 B1u                
  1.101   1.143   1.150   1.185   1.187   1.196   1.298   1.299
 18 Ag   17 B2u   6 B3g  14 B1g  18 B2u  15 B3u   7 B1u   4 B2g                
  1.313   1.391   1.460   1.544   1.584   1.629   1.645   1.711
 15 B1g  19 Ag    5 B2g   8 B1u  20 Ag    4 Au    7 B3g  19 B2u                
  1.806   1.860   1.866   1.910   2.008   2.113   2.114   2.143
 16 B3u  21 Ag   20 B2u  17 B3u  22 Ag   18 B3u   5 Au   16 B1g                
  2.221   2.293   2.416   2.531   2.578   2.584   2.628   2.637
  8 B3g  21 B2u  17 B1g  22 B2u  18 B1g   9 B1u  23 B2u  23 Ag                 
  2.662   2.699   2.791   2.946   2.990   3.106   3.135   3.137
  6 B2g   9 B3g  19 B3u  24 Ag    6 Au   10 B1u  24 B2u  25 Ag                 
  3.155   3.173   3.222   3.270   3.324   3.347   3.603   3.632
 20 B3u   7 B2g  19 B1g   7 Au   10 B3g  20 B1g  26 Ag   21 B3u                
  3.763   3.809   3.838   3.861   3.865   4.324   4.335   4.344
 25 B2u  22 B3u  21 B1g  26 B2u  27 Ag   11 B1u  22 B1g  27 B2u                
  4.412   4.697   5.036   5.258   5.794  24.709  24.834  25.144
 11 B3g  28 Ag   28 B2u  23 B3u  23 B1g  29 Ag   24 B3u  24 B1g                
 25.160  36.887  37.060
 29 B2u  30 Ag   30 B2u                                                        
 
 Beta MOs, Unrestricted
 -- Occupied --                  
-15.601 -15.601 -11.292 -11.292 -11.291 -11.291  -1.309  -1.220
  1 B2u   1 Ag    1 B3u   2 Ag    2 B2u   1 B1g   3 Ag    3 B2u                
 -1.059  -0.909  -0.890  -0.731  -0.706  -0.682  -0.617  -0.574
  2 B3u   4 Ag    2 B1g   5 Ag    3 B3u   4 B2u   4 B3u   1 B1u                
 -0.554  -0.504  -0.435  -0.419  -0.363
  3 B1g   5 B2u   1 B3g   6 Ag    1 B2g                                        
 -- Virtual --                   
  0.064   0.064   0.074   0.084   0.099   0.100   0.112   0.119
  7 Ag    2 B1u   5 B3u   6 B2u   4 B1g   1 Au    8 Ag    3 B1u                
  0.128   0.141   0.142   0.146   0.147   0.186   0.187   0.204
  2 B3g   9 Ag    2 B2g   7 B2u   6 B3u   5 B1g   8 B2u   7 B3u                
  0.206   0.252   0.272   0.284   0.302   0.305   0.311   0.311
  2 Au    6 B1g  10 Ag    4 B1u   8 B3u   9 B2u  11 Ag    3 B3g                
  0.323   0.335   0.349   0.365   0.369   0.413   0.414   0.417
  7 B1g  12 Ag    4 B3g  10 B2u   9 B3u  13 Ag    8 B1g  11 B2u                
  0.461   0.517   0.532   0.611   0.662   0.684   0.699   0.724
 10 B3u  12 B2u   9 B1g  14 Ag   13 B2u  11 B3u   5 B1u   3 B2g                
  0.734   0.735   0.742   0.787   0.795   0.836   0.910   0.930
 15 Ag   12 B3u  10 B1g   5 B3g   3 Au   11 B1g  14 B2u  16 Ag                 
  0.930   0.968   0.969   0.973   1.009   1.041   1.061   1.078
 15 B2u  13 B3u  12 B1g  16 B2u  17 Ag   13 B1g  14 B3u   6 B1u                
  1.101   1.143   1.150   1.185   1.187   1.196   1.298   1.299
 18 Ag   17 B2u   6 B3g  14 B1g  18 B2u  15 B3u   7 B1u   4 B2g                
  1.313   1.391   1.460   1.544   1.584   1.629   1.645   1.711
 15 B1g  19 Ag    5 B2g   8 B1u  20 Ag    4 Au    7 B3g  19 B2u                
  1.806   1.860   1.866   1.910   2.008   2.113   2.114   2.143
 16 B3u  21 Ag   20 B2u  17 B3u  22 Ag   18 B3u   5 Au   16 B1g                
  2.221   2.293   2.416   2.531   2.578   2.584   2.628   2.637
  8 B3g  21 B2u  17 B1g  22 B2u  18 B1g   9 B1u  23 B2u  23 Ag                 
  2.662   2.699   2.791   2.946   2.990   3.106   3.135   3.137
  6 B2g   9 B3g  19 B3u  24 Ag    6 Au   10 B1u  24 B2u  25 Ag                 
  3.155   3.173   3.222   3.270   3.324   3.347   3.603   3.632
 20 B3u   7 B2g  19 B1g   7 Au   10 B3g  20 B1g  26 Ag   21 B3u                
  3.763   3.809   3.838   3.861   3.865   4.324   4.335   4.344
 25 B2u  22 B3u  21 B1g  26 B2u  27 Ag   11 B1u  22 B1g  27 B2u                
  4.412   4.697   5.036   5.258   5.794  24.709  24.834  25.144
 11 B3g  28 Ag   28 B2u  23 B3u  23 B1g  29 Ag   24 B3u  24 B1g                
 25.160  36.887  37.060
 29 B2u  30 Ag   30 B2u                                                        
 --------------------------------------------------------------
 
          Ground-State Mulliken Net Atomic Charges

     Atom                 Charge (a.u.)    Spin (a.u.)
  --------------------------------------------------------
      1 C                    -0.228355       0.000000
      2 C                    -0.228355       0.000000
      3 N                    -0.049011       0.000000
      4 N                    -0.049011       0.000000
      5 C                    -0.228355       0.000000
      6 C                    -0.228355       0.000000
      7 H                     0.252860       0.000000
      8 H                     0.252860       0.000000
      9 H                     0.252860       0.000000
     10 H                     0.252860       0.000000
  --------------------------------------------------------
  Sum of atomic charges =     0.000000
  Sum of spin   charges =     0.000000

 -----------------------------------------------------------------
                    Cartesian Multipole Moments
 -----------------------------------------------------------------
    Charge (ESU x 10^10)
                 0.0000
    Dipole Moment (Debye)
         X       0.0000      Y       0.0000      Z       0.0000
       Tot       0.0000
    Quadrupole Moments (Debye-Ang)
        XX     -26.3607     XY       0.0000     YY     -42.2925
        XZ       0.0000     YZ       0.0000     ZZ     -37.2626
    Octopole Moments (Debye-Ang^2)
       XXX       0.0000    XXY       0.0000    XYY       0.0000
       YYY       0.0000    XXZ       0.0000    XYZ       0.0000
       YYZ       0.0000    XZZ       0.0000    YZZ       0.0000
       ZZZ       0.0000
    Hexadecapole Moments (Debye-Ang^3)
      XXXX    -228.4801   XXXY       0.0000   XXYY     -69.8478
      XYYY       0.0000   YYYY    -309.3998   XXXZ       0.0000
      XXYZ       0.0000   XYYZ       0.0000   YYYZ       0.0000
      XXZZ     -56.2080   XYZZ       0.0000   YYZZ     -53.5235
      XZZZ       0.0000   YZZZ       0.0000   ZZZZ     -41.4457
 -----------------------------------------------------------------
Archival summary:
1\1\tp-linux1\SP\HF\BasisUnspecified\244\thomas\MonJan1617:09:522017MonJan1617:09:522017\0\\#,HF,BasisUnspecified,\\0,1\N\C,1,1.34606\H,2,1.0834,1,116.808\C,1,1.34606,2,115.185,3,-180,0\H,4,1.0834,1,116.808,2,-180,0\C,2,1.39225,1,122.408,3,-180,0\H,6,1.0834,2,120.785,1,-180,0\N,6,1.34606,2,122.408,1,0,0\C,8,1.34606,6,115.185,2,0,0\H,9,1.0834,8,116.808,6,180,0\\HF=-262.73387\\@

 Total job time:  2.79s(wall), 14.01s(cpu) 
 Mon Jan 16 17:09:52 2017

        *************************************************************
        *                                                           *
        *  Thank you very much for using Q-Chem.  Have a nice day.  *
        *                                                           *
        *************************************************************


0 sent ACK to 0 
now end server 0 ... 
cleanup process ... done

Running Job 2 of 3 21-22_ADC_6-311+G_pyr.inp
qchem 21-22_ADC_6-311+G_pyr.inp_7586.1 /scratch/qchem/qchem7586/ 1
/mnt/software/qchem/bin/mpi/mpirun_qchem -machinefile /mnt/software/qchem/bin/mpi/machines -np 1 /mnt/software/qchem/exe/qcprog.exe 21-22_ADC_6-311+G_pyr.inp_7586.1 /scratch/qchem/qchem7586/

Process 0 of 1 is on tp-linux1 - thread support 0
initial socket setup ...start
initial socket setup ...done 
now start server 0 ... 

cmd = ssh tp-linux1 /mnt/software/qchem/bin/get_hostid 1763980121 > /scratch/qchem/qchem7586/lic.dat
                  Welcome to Q-Chem
     A Quantum Leap Into The Future Of Chemistry


 Q-Chem 4.3, Q-Chem, Inc., Pleasanton, CA (2015)

 Y. Shao,  Z. Gan,  E. Epifanovsky,  A. T. B. Gilbert,  M. Wormit,  
 J. Kussmann,  A. W. Lange,  A. Behn,  J. Deng,  X. Feng,  D. Ghosh,  
 M. Goldey,  P. R. Horn,  L. D. Jacobson,  I. Kaliman,  R. Z. Khaliullin,  
 T. Kus,  A. Landau,  J. Liu,  E. I. Proynov,  Y. M. Rhee,  R. M. Richard,  
 M. A. Rohrdanz,  R. P. Steele,  E. J. Sundstrom,  H. L. Woodcock III,  
 P. M. Zimmerman,  D. Zuev,  B. Albrecht,  E. Alguire,  B. Austin,  
 S. A. Baeppler,  G. J. O. Beran,  Y. A. Bernard,  E. Berquist,  
 K. Brandhorst,  K. B. Bravaya,  S. T. Brown,  D. Casanova,  C.-M. Chang,  
 Y. Chen,  S. H. Chien,  K. D. Closser,  D. L. Crittenden,  M. Diedenhofen,  
 R. A. DiStasio Jr.,  H. Do,  A. D. Dutoi,  R. G. Edgar,  P.-T. Fang,  
 S. Fatehi,  Q. Feng,  L. Fusti-Molnar,  A. Ghysels,  
 A. Golubeva-Zadorozhnaya,  J. Gomes,  A. Gunina,  M. W. D. Hanson-Heine,  
 P. H. P. Harbach,  A. W. Hauser,  E. G. Hohenstein,  Z. C. Holden,  K. Hui,  
 T.-C. Jagau,  H. Ji,  B. Kaduk,  K. Khistyaev,  Jaehoon Kim,  Jihan Kim,  
 R. A. King,  P. Klunzinger,  D. Kosenkov,  T. Kowalczyk,  C. M. Krauter,  
 K. U. Lao,  A. Laurent,  K. V. Lawler,  S. Lehtola,  S. V. Levchenko,  
 C. Y. Lin,  Y.-S. Lin,  F. Liu,  E. Livshits,  R. C. Lochan,  A. Luenser,  
 P. Manohar,  S. F. Manzer,  S.-P. Mao,  N. Mardirossian,  A. V. Marenich,  
 L. A. Martinez-Martinez,  S. A. Maurer,  N. J. Mayhall,  K. Nanda,  
 C. M. Oana,  R. Olivares-Amaya,  D. P. O'Neill,  J. A. Parkhill,  
 T. M. Perrine,  R. Peverati,  P. A. Pieniazek,  F. Plasser,  A. Prociuk,  
 D. R. Rehn,  E. Rosta,  N. J. Russ,  N. Sergueev,  S. M. Sharada,  
 S. Sharma,  D. W. Small,  A. Sodt,  T. Stauch,  T. Stein,  D. Stuck,  
 Y.-C. Su,  A. J. W. Thom,  T. Tsuchimochi,  L. Vogt,  O. Vydrov,  T. Wang,  
 M. A. Watson,  J. Wenzel,  A. White,  C. F. Williams,  V. Vanovschi,  
 S. Yeganeh,  S. R. Yost,  Z.-Q. You,  I. Y. Zhang,  X. Zhang,  Y. Zhao,  
 B. R. Brooks,  G. K. L. Chan,  D. M. Chipman,  C. J. Cramer,  
 W. A. Goddard III,  M. S. Gordon,  W. J. Hehre,  A. Klamt,  
 H. F. Schaefer III,  M. W. Schmidt,  C. D. Sherrill,  D. G. Truhlar,  
 A. Warshel,  X. Xu,  A. Aspuru-Guzik,  R. Baer,  A. T. Bell,  N. A. Besley,  
 J.-D. Chai,  A. Dreuw,  B. D. Dunietz,  T. R. Furlani,  S. R. Gwaltney,  
 C.-P. Hsu,  Y. Jung,  J. Kong,  D. S. Lambrecht,  W. Liang,  C. Ochsenfeld,  
 V. A. Rassolov,  L. V. Slipchenko,  J. E. Subotnik,  T. Van Voorhis,  
 J. M. Herbert,  A. I. Krylov,  P. M. W. Gill,  M. Head-Gordon

 Contributors to earlier versions of Q-Chem not listed above: 
 R. D. Adamson,  J. Baker,  E. F. C. Byrd,  A. K. Chakraborty,  C.-L. Cheng,  
 H. Dachsel,  R. J. Doerksen,  G. Hawkins,  A. Heyden,  S. Hirata,  
 G. Kedziora,  F. J. Keil,  C. Kelley,  P. P. Korambath,  W. Kurlancheek,  
 A. M. Lee,  M. S. Lee,  D. Liotard,  I. Lotan,  P. E. Maslen,  N. Nair,  
 D. Neuhauser,  R. Olson,  B. Peters,  J. Ritchie,  N. E. Schultz,  
 N. Shenvi,  A. C. Simmonett,  K. S. Thanthiriwatte,  Q. Wu,  W. Zhang

 Please cite Q-Chem as follows:
 Y. Shao et al., Mol. Phys. 113, 184-215 (2015)
 DOI: 10.1080/00268976.2014.952696

 Q-Chem 4.3.0 for Intel X86 Linux

 Parts of Q-Chem use Armadillo 5.200.1 (Boston Tea Smuggler).
 http://arma.sourceforge.net/

 Q-Chem begins on Mon Jan 16 17:09:55 2017  

Host: 
0

     Scratch files written to /scratch/qchem/qchem7586//
 Nov1815 1189b_ 19540  19532 5443   
 Parallel job on  1  processors
Processing $rem in /mnt/software/qchem/config/preferences.
 MEM_TOTAL  2000 

Checking the input file for inconsistencies... 	...done.

--------------------------------------------------------------
User input:
--------------------------------------------------------------

$comment
job2 - MOM calculation for 2b excited state wavefuntion
$end

$molecule
read
$end

$rem
JOBTYPE           SP
EXCHANGE          HF
BASIS             6-311+G*
SCF_GUESS         READ
MOM_START         1
UNRESTRICTED      TRUE
$end

$swap_occupied_virtual
beta   21  22	!beta electron in RHF HOMO moved to RHF LUMO
$end

--------------------------------------------------------------
 ----------------------------------------------------------------
             Standard Nuclear Orientation (Angstroms)
    I     Atom           X                Y                Z
 ----------------------------------------------------------------
    1      C       1.1364190000    -0.6961260000     0.0000000000
    2      C       1.1364190000     0.6961260000     0.0000000000
    3      N       0.0000000000    -1.4175320000     0.0000000000
    4      N       0.0000000000     1.4175320000     0.0000000000
    5      C      -1.1364190000     0.6961260000     0.0000000000
    6      C      -1.1364190000    -0.6961260000     0.0000000000
    7      H      -2.0671600000     1.2506250000     0.0000000000
    8      H      -2.0671600000    -1.2506250000     0.0000000000
    9      H       2.0671600000     1.2506250000     0.0000000000
   10      H       2.0671600000    -1.2506250000     0.0000000000
 ----------------------------------------------------------------
 Molecular Point Group                 D2h   NOp =  8
 Largest Abelian Subgroup              D2h   NOp =  8
 Nuclear Repulsion Energy =   207.9974042823 hartrees
 There are       21 alpha and       21 beta electrons
 Requested basis set is 6-311+G(d)
 There are 48 shells and 144 basis functions

 Total QAlloc Memory Limit   2000 MB
 Mega-Array Size        61 MB
 MEM_STATIC part        62 MB

                       Distance Matrix (Angstroms)
             C (  1)   C (  2)   N (  3)   N (  4)   C (  5)   C (  6)
   C (  2)  1.392252
   N (  3)  1.346059  2.399791
   N (  4)  2.399791  1.346059  2.835064
   C (  5)  2.665363  2.272838  2.399791  1.346059
   C (  6)  2.272838  2.665363  1.346059  2.399791  1.392252
   H (  7)  3.748701  3.251213  3.375235  2.073887  1.083396  2.157804
   H (  8)  3.251213  3.748701  2.073887  3.375235  2.157804  1.083396
   H (  9)  2.157804  1.083396  3.375235  2.073887  3.251213  3.748701
   H ( 10)  1.083396  2.157804  2.073887  3.375235  3.748701  3.251213
             H (  7)   H (  8)   H (  9)
   H (  8)  2.501250
   H (  9)  4.134320  4.832065
   H ( 10)  4.832065  4.134320  2.501250
 
 tim1(1): 
  0.000000000000000E+000
 tim1(2): 
  0.000000000000000E+000
 A cutoff of  1.0D-08 yielded   1110 shell pairs
 There are     10445 function pairs (     11350 Cartesian)
 
 -------------------------------------------------------
 OpenMP Integral Computing Module                       
 Release: version 1.0, May 2013, Q-Chem Inc. Pittsburgh 
 -------------------------------------------------------
 Integral Job Info:
 Integral job number is                      11
 Integral operator is                         1
 short-range coefficients                     0
 long-range coefficients              100000000
 Omega coefficients                           0
 if combine SR and LR in K                    0
 Integral screening is                        0
 Integral computing path is                   2
 max size of driver memory is            800000
 size of driver memory is                593474
 size of scratch memory is              2260544
 max col of scratch BK array               1296
 max len of scratch array in speh3          155
 max len of scratch index in speh4           18
 max int batch size is                      520
 min int batch size is                       52
 fixed nKL is                                52
 max L of basis functions is                  2
 order of int derivative is                   0
 number of shells is                         48
 number of basis is                         150
 number of cartesian basis is               150
 number of contracted shell pairs          1110
 number of primitive shell pairs           3292
 maxK2 (contraction) of shell pair           36
 max number of K2 of shell pair               1
 max number of CS2 of shell pair            179
 max number of PS2 of shell pair            636
 mem total for path MDJ                   29946
 -------------------------------------------------------
 Smallest overlap matrix eigenvalue = 4.10E-05

 Q-Chem warning in module /home/scratch/svnadmin/1189b_zgan/qchem/stvman/mkSTV.C, line 251:

 Overlap eigenvalue is smaller than square root of threshold


 Scale SEOQF with 1.000000e-01/1.000000e-01/1.000000e-01

 Standard Electronic Orientation quadrupole field applied
 Nucleus-field energy     =     0.0000000050 hartrees
 Guess MOs from SCF MO coefficient file
 Reading MOs from coefficient file
 User-specified occupied guess orbitals will be used
   Alpha:
   1   2   3   4   5   6   7   8   9  10  11  12  13  14  15
  16  17  18  19  20  21
 Reading MOs from coefficient file
   Beta:
   1   2   3   4   5   6   7   8   9  10  11  12  13  14  15
  16  17  18  19  20  22
 An unrestricted Hartree-Fock SCF calculation will be
 performed using Pulay DIIS extrapolation
 SCF converges when DIIS error is below 1.0E-05
 using 8 threads for integral computing 
 MOM overlap:    20.9790216425 / 21
 MOM overlap:    20.9581034984 / 21
 ---------------------------------------
  Cycle       Energy         DIIS Error
 ---------------------------------------
    1    -262.4478331650      2.83E-03
 MOM overlap:    20.9992226396 / 21
 MOM overlap:    20.9959107895 / 21
    2    -262.4853657724      1.29E-03
 MOM overlap:    20.9992912493 / 21
 MOM overlap:    20.9973681017 / 21
    3    -262.4927902700      2.34E-04
 MOM overlap:    20.9996556460 / 21
 MOM overlap:    20.9982813498 / 21
    4    -262.4957686265      1.10E-04
 MOM overlap:    20.9993915661 / 21
 MOM overlap:    20.9981344281 / 21
    5    -262.4975091314      6.72E-05
 MOM overlap:    20.9994676092 / 21
 MOM overlap:    20.9986091092 / 21
    6    -262.4988412770      3.48E-05
 MOM overlap:    20.9998318550 / 21
 MOM overlap:    20.9996247442 / 21
    7    -262.4994896909      1.49E-05
 MOM overlap:    20.9999834431 / 21
 MOM overlap:    20.9999611728 / 21
    8    -262.4996241338      4.50E-06 Convergence criterion met
 ---------------------------------------
 <S^2> = 1.1473
 SCF time:  CPU 12.14 s  wall 2.50 s
 SCF   energy in the final basis set = -262.4996241338
 Total energy in the final basis set = -262.4996241338
 
 --------------------------------------------------------------
             Orbital Energies (a.u.) and Symmetries
 --------------------------------------------------------------
 
 Alpha MOs, Unrestricted
 -- Occupied --                  
-15.662 -15.662 -11.403 -11.403 -11.402 -11.402  -1.399  -1.292
  1 B2u   1 Ag    1 B3u   2 Ag    2 B2u   1 B1g   3 Ag    3 B2u                
 -1.176  -1.010  -0.980  -0.818  -0.798  -0.766  -0.711  -0.673
  2 B3u   4 Ag    2 B1g   5 Ag    3 B3u   4 B2u   4 B3u   1 B1u                
 -0.633  -0.564  -0.506  -0.488  -0.487
  3 B1g   5 B2u   1 B2g   1 B3g   6 Ag                                         
 -- Virtual --                   
 -0.006   0.016   0.050   0.062   0.075   0.090   0.095   0.096
  1 Au    2 B1u   7 Ag    5 B3u   6 B2u   4 B1g   3 B1u   8 Ag                 
  0.121   0.123   0.126   0.138   0.139   0.178   0.180   0.181
  2 B3g   9 Ag    2 B2g   6 B3u   7 B2u   8 B2u   2 Au    5 B1g                
  0.183   0.236   0.237   0.242   0.263   0.267   0.271   0.276
  7 B3u  10 Ag    3 B3g   6 B1g   8 B3u   4 B1u  11 Ag    9 B2u                
  0.284   0.308   0.324   0.337   0.342   0.355   0.381   0.385
  7 B1g  12 Ag    4 B3g  10 B2u   9 B3u  13 Ag    8 B1g  11 B2u                
  0.395   0.447   0.451   0.551   0.592   0.608   0.613   0.643
 10 B3u  12 B2u   9 B1g  14 Ag   13 B2u  11 B3u   5 B1u   3 B2g                
  0.659   0.678   0.687   0.706   0.716   0.769   0.844   0.856
 15 Ag   12 B3u  10 B1g   5 B3g   3 Au   11 B1g  14 B2u  16 Ag                 
  0.862   0.898   0.908   0.910   0.935   0.957   0.983   1.036
 15 B2u  16 B2u  12 B1g  13 B3u  17 Ag   13 B1g  14 B3u   6 B1u                
  1.052   1.069   1.110   1.121   1.136   1.141   1.187   1.188
 18 Ag   17 B2u   6 B3g  14 B1g  15 B3u  18 B2u   7 B1u   4 B2g                
  1.255   1.331   1.347   1.439   1.496   1.530   1.551   1.654
 15 B1g  19 Ag    5 B2g   8 B1u  20 Ag    4 Au    7 B3g  19 B2u                
  1.717   1.763   1.781   1.820   1.919   2.008   2.009   2.054
 16 B3u  21 Ag   20 B2u  17 B3u  22 Ag   18 B3u   5 Au   16 B1g                
  2.113   2.198   2.327   2.451   2.486   2.515   2.549   2.570
  8 B3g  21 B2u  17 B1g  22 B2u  18 B1g   9 B1u  23 B2u  23 Ag                 
  2.582   2.623   2.713   2.883   2.907   2.994   3.059   3.069
  6 B2g   9 B3g  19 B3u  24 Ag    6 Au   10 B1u  25 Ag    7 B2g                
  3.070   3.078   3.139   3.158   3.212   3.266   3.502   3.531
 24 B2u  20 B3u  19 B1g   7 Au   10 B3g  20 B1g  26 Ag   21 B3u                
  3.678   3.726   3.752   3.775   3.780   4.245   4.250   4.271
 25 B2u  22 B3u  21 B1g  27 Ag   26 B2u  22 B1g  27 B2u  11 B1u                
  4.359   4.630   4.960   5.182   5.712  24.601  24.725  25.035
 11 B3g  28 Ag   28 B2u  23 B3u  23 B1g  29 Ag   24 B3u  24 B1g                
 25.051  36.823  36.997
 29 B2u  30 Ag   30 B2u                                                        
 
 Beta MOs, Unrestricted
 -- Occupied --                  
-15.672 -15.672 -11.395 -11.395 -11.394 -11.394  -1.395  -1.311
  1 B2u   1 Ag    1 B3u   2 Ag    2 B2u   1 B1g   3 Ag    3 B2u                
 -1.125  -0.994  -0.963  -0.815  -0.795  -0.759  -0.702  -0.634
  2 B3u   4 Ag    2 B1g   5 Ag    3 B3u   4 B2u   4 B3u   3 B1g                
 -0.617  -0.574  -0.540  -0.495  -0.083
  1 B1u   5 B2u   1 B3g   6 Ag    7 Ag                                         
 -- Virtual --                   
 -0.119   0.014   0.032   0.054   0.079   0.079   0.086   0.089
  1 B2g   2 B1u   5 B3u   6 B2u   4 B1g   8 Ag    3 B1u   1 Au                 
  0.106   0.109   0.119   0.130   0.132   0.168   0.175   0.177
  2 B3g   9 Ag    2 B2g   6 B3u   7 B2u   8 B2u   7 B3u   5 B1g                
  0.193   0.230   0.235   0.249   0.260   0.267   0.275   0.275
  2 Au   10 Ag    6 B1g   4 B1u   8 B3u  11 Ag    3 B3g   9 B2u                
  0.289   0.305   0.309   0.336   0.341   0.350   0.379   0.381
  7 B1g  12 Ag    4 B3g  10 B2u   9 B3u  13 Ag   11 B2u   8 B1g                
  0.397   0.451   0.473   0.554   0.608   0.629   0.650   0.662
 10 B3u  12 B2u   9 B1g  14 Ag   13 B2u  11 B3u   5 B1u  15 Ag                 
  0.679   0.680   0.688   0.740   0.749   0.773   0.849   0.858
  3 B2g  12 B3u  10 B1g   5 B3g   3 Au   11 B1g  14 B2u  16 Ag                 
  0.862   0.898   0.912   0.913   0.942   0.965   0.992   1.007
 15 B2u  16 B2u  13 B3u  12 B1g  17 Ag   13 B1g  14 B3u   6 B1u                
  1.046   1.075   1.081   1.123   1.137   1.138   1.223   1.226
 18 Ag   17 B2u   6 B3g  14 B1g  18 B2u  15 B3u   7 B1u   4 B2g                
  1.254   1.325   1.387   1.469   1.513   1.548   1.563   1.643
 15 B1g  19 Ag    5 B2g   8 B1u  20 Ag    4 Au    7 B3g  19 B2u                
  1.726   1.779   1.786   1.826   1.919   2.032   2.034   2.070
 16 B3u  21 Ag   20 B2u  17 B3u  22 Ag    5 Au   18 B3u  16 B1g                
  2.139   2.211   2.330   2.447   2.496   2.503   2.547   2.564
  8 B3g  21 B2u  17 B1g  22 B2u  18 B1g   9 B1u  23 B2u  23 Ag                 
  2.579   2.617   2.714   2.866   2.906   3.023   3.056   3.057
  6 B2g   9 B3g  19 B3u  24 Ag    6 Au   10 B1u  25 Ag   24 B2u                
  3.076   3.092   3.140   3.185   3.239   3.267   3.509   3.538
 20 B3u   7 B2g  19 B1g   7 Au   10 B3g  20 B1g  26 Ag   21 B3u                
  3.680   3.728   3.755   3.778   3.780   4.243   4.249   4.255
 25 B2u  22 B3u  21 B1g  27 Ag   26 B2u  11 B1u  22 B1g  27 B2u                
  4.332   4.626   4.959   5.180   5.712  24.606  24.731  25.040
 11 B3g  28 Ag   28 B2u  23 B3u  23 B1g  29 Ag   24 B3u  24 B1g                
 25.056  36.817  36.990
 29 B2u  30 Ag   30 B2u                                                        
 --------------------------------------------------------------
 
          Ground-State Mulliken Net Atomic Charges

     Atom                 Charge (a.u.)    Spin (a.u.)
  --------------------------------------------------------
      1 C                    -0.638793      -0.085330
      2 C                    -0.638793      -0.085330
      3 N                     0.471326       0.100016
      4 N                     0.471326       0.100016
      5 C                    -0.638793      -0.085330
      6 C                    -0.638793      -0.085330
      7 H                     0.403130       0.035323
      8 H                     0.403130       0.035323
      9 H                     0.403130       0.035323
     10 H                     0.403130       0.035323
  --------------------------------------------------------
  Sum of atomic charges =     0.000000
  Sum of spin   charges =     0.000000

 -----------------------------------------------------------------
                    Cartesian Multipole Moments
 -----------------------------------------------------------------
    Charge (ESU x 10^10)
                 0.0000
    Dipole Moment (Debye)
         X       0.0000      Y       0.0000      Z       0.0000
       Tot       0.0000
    Quadrupole Moments (Debye-Ang)
        XX     -39.5253     XY       0.0000     YY     -53.8131
        XZ       0.0000     YZ       0.0000     ZZ     -51.8006
    Octopole Moments (Debye-Ang^2)
       XXX       0.0000    XXY       0.0000    XYY       0.0000
       YYY       0.0000    XXZ       0.0000    XYZ       0.0000
       YYZ       0.0000    XZZ       0.0000    YZZ       0.0000
       ZZZ       0.0000
    Hexadecapole Moments (Debye-Ang^3)
      XXXX    -465.8323   XXXY       0.0000   XXYY    -143.1777
      XYYY       0.0000   YYYY    -470.9136   XXXZ       0.0000
      XXYZ       0.0000   XYYZ       0.0000   YYYZ       0.0000
      XXZZ    -122.6987   XYZZ       0.0000   YYZZ    -106.1850
      XZZZ       0.0000   YZZZ       0.0000   ZZZZ    -178.4543
 -----------------------------------------------------------------
Archival summary:
1\1\tp-linux1\SP\HF\BasisUnspecified\244\thomas\MonJan1617:09:582017MonJan1617:09:582017\0\\#,HF,BasisUnspecified,\\0,1\N\C,1,1.34606\H,2,1.0834,1,116.808\C,1,1.34606,2,115.185,3,180,0\H,4,1.0834,1,116.808,2,-180,0\C,2,1.39225,1,122.408,3,-180,0\H,6,1.0834,2,120.785,1,-180,0\N,6,1.34606,2,122.408,1,0,0\C,8,1.34606,6,115.185,2,0,0\H,9,1.0834,8,116.808,6,-180,0\\HF=-262.499624\\@

 Total job time:  2.90s(wall), 13.87s(cpu) 
 Mon Jan 16 17:09:58 2017

        *************************************************************
        *                                                           *
        *  Thank you very much for using Q-Chem.  Have a nice day.  *
        *                                                           *
        *************************************************************


0 sent ACK to 0 
now end server 0 ... 
cleanup process ... done

Running Job 3 of 3 21-22_ADC_6-311+G_pyr.inp
qchem 21-22_ADC_6-311+G_pyr.inp_7586.2 /scratch/qchem/qchem7586/ 1
/mnt/software/qchem/bin/mpi/mpirun_qchem -machinefile /mnt/software/qchem/bin/mpi/machines -np 1 /mnt/software/qchem/exe/qcprog.exe 21-22_ADC_6-311+G_pyr.inp_7586.2 /scratch/qchem/qchem7586/

Process 0 of 1 is on tp-linux1 - thread support 0
initial socket setup ...start
initial socket setup ...done 
now start server 0 ... 

cmd = ssh tp-linux1 /mnt/software/qchem/bin/get_hostid 1019703856 > /scratch/qchem/qchem7586/lic.dat
                  Welcome to Q-Chem
     A Quantum Leap Into The Future Of Chemistry


 Q-Chem 4.3, Q-Chem, Inc., Pleasanton, CA (2015)

 Y. Shao,  Z. Gan,  E. Epifanovsky,  A. T. B. Gilbert,  M. Wormit,  
 J. Kussmann,  A. W. Lange,  A. Behn,  J. Deng,  X. Feng,  D. Ghosh,  
 M. Goldey,  P. R. Horn,  L. D. Jacobson,  I. Kaliman,  R. Z. Khaliullin,  
 T. Kus,  A. Landau,  J. Liu,  E. I. Proynov,  Y. M. Rhee,  R. M. Richard,  
 M. A. Rohrdanz,  R. P. Steele,  E. J. Sundstrom,  H. L. Woodcock III,  
 P. M. Zimmerman,  D. Zuev,  B. Albrecht,  E. Alguire,  B. Austin,  
 S. A. Baeppler,  G. J. O. Beran,  Y. A. Bernard,  E. Berquist,  
 K. Brandhorst,  K. B. Bravaya,  S. T. Brown,  D. Casanova,  C.-M. Chang,  
 Y. Chen,  S. H. Chien,  K. D. Closser,  D. L. Crittenden,  M. Diedenhofen,  
 R. A. DiStasio Jr.,  H. Do,  A. D. Dutoi,  R. G. Edgar,  P.-T. Fang,  
 S. Fatehi,  Q. Feng,  L. Fusti-Molnar,  A. Ghysels,  
 A. Golubeva-Zadorozhnaya,  J. Gomes,  A. Gunina,  M. W. D. Hanson-Heine,  
 P. H. P. Harbach,  A. W. Hauser,  E. G. Hohenstein,  Z. C. Holden,  K. Hui,  
 T.-C. Jagau,  H. Ji,  B. Kaduk,  K. Khistyaev,  Jaehoon Kim,  Jihan Kim,  
 R. A. King,  P. Klunzinger,  D. Kosenkov,  T. Kowalczyk,  C. M. Krauter,  
 K. U. Lao,  A. Laurent,  K. V. Lawler,  S. Lehtola,  S. V. Levchenko,  
 C. Y. Lin,  Y.-S. Lin,  F. Liu,  E. Livshits,  R. C. Lochan,  A. Luenser,  
 P. Manohar,  S. F. Manzer,  S.-P. Mao,  N. Mardirossian,  A. V. Marenich,  
 L. A. Martinez-Martinez,  S. A. Maurer,  N. J. Mayhall,  K. Nanda,  
 C. M. Oana,  R. Olivares-Amaya,  D. P. O'Neill,  J. A. Parkhill,  
 T. M. Perrine,  R. Peverati,  P. A. Pieniazek,  F. Plasser,  A. Prociuk,  
 D. R. Rehn,  E. Rosta,  N. J. Russ,  N. Sergueev,  S. M. Sharada,  
 S. Sharma,  D. W. Small,  A. Sodt,  T. Stauch,  T. Stein,  D. Stuck,  
 Y.-C. Su,  A. J. W. Thom,  T. Tsuchimochi,  L. Vogt,  O. Vydrov,  T. Wang,  
 M. A. Watson,  J. Wenzel,  A. White,  C. F. Williams,  V. Vanovschi,  
 S. Yeganeh,  S. R. Yost,  Z.-Q. You,  I. Y. Zhang,  X. Zhang,  Y. Zhao,  
 B. R. Brooks,  G. K. L. Chan,  D. M. Chipman,  C. J. Cramer,  
 W. A. Goddard III,  M. S. Gordon,  W. J. Hehre,  A. Klamt,  
 H. F. Schaefer III,  M. W. Schmidt,  C. D. Sherrill,  D. G. Truhlar,  
 A. Warshel,  X. Xu,  A. Aspuru-Guzik,  R. Baer,  A. T. Bell,  N. A. Besley,  
 J.-D. Chai,  A. Dreuw,  B. D. Dunietz,  T. R. Furlani,  S. R. Gwaltney,  
 C.-P. Hsu,  Y. Jung,  J. Kong,  D. S. Lambrecht,  W. Liang,  C. Ochsenfeld,  
 V. A. Rassolov,  L. V. Slipchenko,  J. E. Subotnik,  T. Van Voorhis,  
 J. M. Herbert,  A. I. Krylov,  P. M. W. Gill,  M. Head-Gordon

 Contributors to earlier versions of Q-Chem not listed above: 
 R. D. Adamson,  J. Baker,  E. F. C. Byrd,  A. K. Chakraborty,  C.-L. Cheng,  
 H. Dachsel,  R. J. Doerksen,  G. Hawkins,  A. Heyden,  S. Hirata,  
 G. Kedziora,  F. J. Keil,  C. Kelley,  P. P. Korambath,  W. Kurlancheek,  
 A. M. Lee,  M. S. Lee,  D. Liotard,  I. Lotan,  P. E. Maslen,  N. Nair,  
 D. Neuhauser,  R. Olson,  B. Peters,  J. Ritchie,  N. E. Schultz,  
 N. Shenvi,  A. C. Simmonett,  K. S. Thanthiriwatte,  Q. Wu,  W. Zhang

 Please cite Q-Chem as follows:
 Y. Shao et al., Mol. Phys. 113, 184-215 (2015)
 DOI: 10.1080/00268976.2014.952696

 Q-Chem 4.3.0 for Intel X86 Linux

 Parts of Q-Chem use Armadillo 5.200.1 (Boston Tea Smuggler).
 http://arma.sourceforge.net/

 Q-Chem begins on Mon Jan 16 17:10:00 2017  

Host: 
0

     Scratch files written to /scratch/qchem/qchem7586//
 Nov1815 1189b_ 19540  19532 5443   
 Parallel job on  1  processors
Processing $rem in /mnt/software/qchem/config/preferences.
 MEM_TOTAL  2000 

Checking the input file for inconsistencies... 	...done.

--------------------------------------------------------------
User input:
--------------------------------------------------------------

$comment
job3 - cvs-adc(2)-x calculation with mom to prevent collapse to ground state
$end

$molecule
read
$end

$rem
mem_total 3000
mem_static 1500
method cvs-adc(2)-x
basis 6-311+G*
ee_states 6
cc_rest_occ 1                  !only excitations from the 1st orbital (O 1s)
unrestricted  true
max_scf_cycles 200
mom_start 1
scf_guess read
symmetry off
$end

--------------------------------------------------------------
 ----------------------------------------------------------------
             Standard Nuclear Orientation (Angstroms)
    I     Atom           X                Y                Z
 ----------------------------------------------------------------
    1      C       1.1364190000    -0.6961260000     0.0000000000
    2      C       1.1364190000     0.6961260000     0.0000000000
    3      N       0.0000000000    -1.4175320000     0.0000000000
    4      N       0.0000000000     1.4175320000     0.0000000000
    5      C      -1.1364190000     0.6961260000     0.0000000000
    6      C      -1.1364190000    -0.6961260000     0.0000000000
    7      H      -2.0671600000     1.2506250000     0.0000000000
    8      H      -2.0671600000    -1.2506250000     0.0000000000
    9      H       2.0671600000     1.2506250000     0.0000000000
   10      H       2.0671600000    -1.2506250000     0.0000000000
 ----------------------------------------------------------------
 Molecular Point Group                 D2h   NOp =  8
 Largest Abelian Subgroup              D2h   NOp =  8
 Nuclear Repulsion Energy =   207.9974042823 hartrees
 There are       21 alpha and       21 beta electrons
 Requested basis set is 6-311+G(d)
 There are 48 shells and 144 basis functions

 Total QAlloc Memory Limit   3000 MB
 Mega-Array Size      1467 MB
 MEM_STATIC part      1500 MB

                       Distance Matrix (Angstroms)
             C (  1)   C (  2)   N (  3)   N (  4)   C (  5)   C (  6)
   C (  2)  1.392252
   N (  3)  1.346059  2.399791
   N (  4)  2.399791  1.346059  2.835064
   C (  5)  2.665363  2.272838  2.399791  1.346059
   C (  6)  2.272838  2.665363  1.346059  2.399791  1.392252
   H (  7)  3.748701  3.251213  3.375235  2.073887  1.083396  2.157804
   H (  8)  3.251213  3.748701  2.073887  3.375235  2.157804  1.083396
   H (  9)  2.157804  1.083396  3.375235  2.073887  3.251213  3.748701
   H ( 10)  1.083396  2.157804  2.073887  3.375235  3.748701  3.251213
             H (  7)   H (  8)   H (  9)
   H (  8)  2.501250
   H (  9)  4.134320  4.832065
   H ( 10)  4.832065  4.134320  2.501250
 
 tim1(1): 
  0.000000000000000E+000
 tim1(2): 
  0.000000000000000E+000
 A cutoff of  1.0D-11 yielded   1146 shell pairs
 There are     10569 function pairs (     11484 Cartesian)
 
 -------------------------------------------------------
 OpenMP Integral Computing Module                       
 Release: version 1.0, May 2013, Q-Chem Inc. Pittsburgh 
 -------------------------------------------------------
 Integral Job Info:
 Integral job number is                      11
 Integral operator is                         1
 short-range coefficients                     0
 long-range coefficients              100000000
 Omega coefficients                           0
 if combine SR and LR in K                    0
 Integral screening is                        0
 Integral computing path is                   2
 max size of driver memory is            800000
 size of driver memory is                593474
 size of scratch memory is              2260544
 max col of scratch BK array               1296
 max len of scratch array in speh3          155
 max len of scratch index in speh4           18
 max int batch size is                      520
 min int batch size is                       52
 fixed nKL is                                52
 max L of basis functions is                  2
 order of int derivative is                   0
 number of shells is                         48
 number of basis is                         150
 number of cartesian basis is               150
 number of contracted shell pairs          1146
 number of primitive shell pairs           3470
 maxK2 (contraction) of shell pair           36
 max number of K2 of shell pair               1
 max number of CS2 of shell pair            173
 max number of PS2 of shell pair            648
 mem total for path MDJ                   29946
 -------------------------------------------------------
 Smallest overlap matrix eigenvalue = 4.10E-05

 Scale SEOQF with 1.000000e-01/1.000000e-01/1.000000e-01

 Standard Electronic Orientation quadrupole field applied
 Nucleus-field energy     =     0.0000000050 hartrees
 Guess MOs from SCF MO coefficient file
 Reading MOs from coefficient file
 Reading MOs from coefficient file
 An unrestricted Hartree-Fock SCF calculation will be
 performed using Pulay DIIS extrapolation
 SCF converges when DIIS error is below 1.0E-08
 using 8 threads for integral computing 
 MOM overlap:    20.9999999429 / 21
 MOM overlap:    20.9999995165 / 21
 ---------------------------------------
  Cycle       Energy         DIIS Error
 ---------------------------------------
    1    -262.4996363482      1.51E-06
 MOM overlap:    20.9999998209 / 21
 MOM overlap:    20.9999986019 / 21
    2    -262.4996366570      1.01E-06
 MOM overlap:    20.9999999839 / 21
 MOM overlap:    20.9999999143 / 21
    3    -262.4996369488      4.09E-07
 MOM overlap:    20.9999999910 / 21
 MOM overlap:    20.9999999509 / 21
    4    -262.4996369793      2.31E-07
 MOM overlap:    20.9999999985 / 21
 MOM overlap:    20.9999999906 / 21
    5    -262.4996369915      9.79E-08
 MOM overlap:    20.9999999995 / 21
 MOM overlap:    20.9999999961 / 21
    6    -262.4996369936      4.92E-08
 MOM overlap:    21.0000000000 / 21
 MOM overlap:    20.9999999998 / 21
    7    -262.4996369938      1.11E-08
 MOM overlap:    21.0000000000 / 21
 MOM overlap:    21.0000000000 / 21
    8    -262.4996369937      2.93E-09 Convergence criterion met
 ---------------------------------------
 <S^2> = 1.1486
 SCF time:  CPU 19.88 s  wall 3.31 s
 SCF   energy in the final basis set = -262.4996369937
 Total energy in the final basis set = -262.4996369937
================================================================================
|                                                                              |
|                                 A D C  M A N                                 |
|                                                                              |
 ------------------------------------------------------------------------------ 
|                                                                              |
| Components:                                                                  |
|                                                                              |
| - libvmm - 1.2-release                                                       |
|   Authors:                                                                   |
|   Evgeny Epifanovsky, Ilya Kaliman                                           |
|                                                                              |
| - libtensor - 2.4-trunk                                                      |
|   Authors:                                                                   |
|   Evgeny Epifanovsky, Michael Wormit, Dmitry Zuev, Sam Manzer                |
|                                                                              |
| - libwfa - 1.1-beta                                                          |
|   Authors:                                                                   |
|   Felix Plasser, Stefanie Baeppler, Benjamin Thomitzni, Michael Wormit       |
|                                                                              |
| - libadc - 1.0-beta                                                          |
|   Authors:                                                                   |
|   Michael Wormit, Philipp H. P. Harbach, Caroline Krauter, Dirk Rehn,        |
|   Matthias Schneider, Jan Wenzel                                             |
|                                                                              |
| - adcman - 2.4-beta                                                          |
|   Authors:                                                                   |
|   Michael Wormit, Philipp H. P. Harbach, Caroline Krauter, Dirk Rehn,        |
|   Jan Wenzel, Andreas Dreuw                                                  |
|                                                                              |
| Authors of earlier versions of ADCMAN:                                       |
| Andreas Dreuw, Jan Hendrik Starcke, Dirk Rehn, Michael Wormit                |
|                                                                              |
================================================================================

 
 Alpha MOs, Unrestricted
 -- Occupied --                  
-15.662 -15.662 -11.403 -11.403 -11.402 -11.402  -1.399  -1.292
  1 B2u   1 Ag    1 B3u   2 Ag    2 B2u   1 B1g   3 Ag    3 B2u                
 -1.177  -1.010  -0.980  -0.818  -0.798  -0.766  -0.711  -0.673
  2 B3u   4 Ag    2 B1g   5 Ag    3 B3u   4 B2u   4 B3u   1 B1u                
 -0.633  -0.564  -0.507  -0.488  -0.487
  3 B1g   5 B2u   1 B2g   1 B3g   6 Ag                                         
 -- Virtual --                   
 -0.006   0.016   0.050   0.062   0.075   0.090   0.095   0.096
  1 Au    2 B1u   7 Ag    5 B3u   6 B2u   4 B1g   3 B1u   8 Ag                 
  0.121   0.123   0.126   0.138   0.139   0.178   0.180   0.181
  2 B3g   9 Ag    2 B2g   6 B3u   7 B2u   8 B2u   2 Au    5 B1g                
  0.183   0.236   0.237   0.242   0.263   0.267   0.271   0.276
  7 B3u  10 Ag    3 B3g   6 B1g   8 B3u   4 B1u  11 Ag    9 B2u                
  0.284   0.308   0.324   0.337   0.342   0.355   0.381   0.386
  7 B1g  12 Ag    4 B3g  10 B2u   9 B3u  13 Ag    8 B1g  11 B2u                
  0.395   0.447   0.451   0.551   0.592   0.608   0.613   0.643
 10 B3u  12 B2u   9 B1g  14 Ag   13 B2u  11 B3u   5 B1u   3 B2g                
  0.659   0.678   0.687   0.706   0.716   0.769   0.844   0.856
 15 Ag   12 B3u  10 B1g   5 B3g   3 Au   11 B1g  14 B2u  16 Ag                 
  0.862   0.898   0.908   0.910   0.935   0.957   0.983   1.036
 15 B2u  16 B2u  12 B1g  13 B3u  17 Ag   13 B1g  14 B3u   6 B1u                
  1.052   1.069   1.110   1.121   1.136   1.141   1.187   1.188
 18 Ag   17 B2u   6 B3g  14 B1g  15 B3u  18 B2u   7 B1u   4 B2g                
  1.255   1.331   1.347   1.439   1.496   1.530   1.551   1.654
 15 B1g  19 Ag    5 B2g   8 B1u  20 Ag    4 Au    7 B3g  19 B2u                
  1.717   1.763   1.781   1.820   1.919   2.008   2.009   2.054
 16 B3u  21 Ag   20 B2u  17 B3u  22 Ag   18 B3u   5 Au   16 B1g                
  2.113   2.198   2.327   2.451   2.486   2.515   2.549   2.570
  8 B3g  21 B2u  17 B1g  22 B2u  18 B1g   9 B1u  23 B2u  23 Ag                 
  2.582   2.623   2.713   2.883   2.907   2.994   3.060   3.069
  6 B2g   9 B3g  19 B3u  24 Ag    6 Au   10 B1u  25 Ag    7 B2g                
  3.070   3.078   3.139   3.158   3.212   3.266   3.502   3.531
 24 B2u  20 B3u  19 B1g   7 Au   10 B3g  20 B1g  26 Ag   21 B3u                
  3.679   3.726   3.752   3.775   3.780   4.245   4.250   4.271
 25 B2u  22 B3u  21 B1g  27 Ag   26 B2u  22 B1g  27 B2u  11 B1u                
  4.359   4.630   4.960   5.182   5.712  24.601  24.725  25.035
 11 B3g  28 Ag   28 B2u  23 B3u  23 B1g  29 Ag   24 B3u  24 B1g                
 25.051  36.824  36.997
 29 B2u  30 Ag   30 B2u                                                        
 
 Beta MOs, Unrestricted
 -- Occupied --                  
-15.672 -15.672 -11.395 -11.395 -11.394 -11.394  -1.395  -1.311
  1 B2u   1 Ag    1 B3u   2 Ag    2 B2u   1 B1g   3 Ag    3 B2u                
 -1.125  -0.994  -0.963  -0.815  -0.795  -0.759  -0.702  -0.634
  2 B3u   4 Ag    2 B1g   5 Ag    3 B3u   4 B2u   4 B3u   3 B1g                
 -0.617  -0.574  -0.540  -0.495  -0.083
  1 B1u   5 B2u   1 B3g   6 Ag    7 Ag                                         
 -- Virtual --                   
 -0.119   0.014   0.032   0.054   0.079   0.079   0.086   0.089
  1 B2g   2 B1u   5 B3u   6 B2u   4 B1g   8 Ag    3 B1u   1 Au                 
  0.106   0.109   0.119   0.130   0.132   0.168   0.175   0.177
  2 B3g   9 Ag    2 B2g   6 B3u   7 B2u   8 B2u   7 B3u   5 B1g                
  0.193   0.230   0.235   0.249   0.260   0.268   0.275   0.275
  2 Au   10 Ag    6 B1g   4 B1u   8 B3u  11 Ag    3 B3g   9 B2u                
  0.289   0.305   0.309   0.336   0.341   0.350   0.379   0.381
  7 B1g  12 Ag    4 B3g  10 B2u   9 B3u  13 Ag   11 B2u   8 B1g                
  0.397   0.451   0.473   0.554   0.608   0.629   0.650   0.662
 10 B3u  12 B2u   9 B1g  14 Ag   13 B2u  11 B3u   5 B1u  15 Ag                 
  0.679   0.680   0.688   0.740   0.749   0.773   0.849   0.858
  3 B2g  12 B3u  10 B1g   5 B3g   3 Au   11 B1g  14 B2u  16 Ag                 
  0.862   0.898   0.912   0.913   0.942   0.965   0.992   1.007
 15 B2u  16 B2u  13 B3u  12 B1g  17 Ag   13 B1g  14 B3u   6 B1u                
  1.046   1.075   1.081   1.123   1.137   1.138   1.223   1.226
 18 Ag   17 B2u   6 B3g  14 B1g  18 B2u  15 B3u   7 B1u   4 B2g                
  1.254   1.325   1.387   1.469   1.513   1.548   1.563   1.643
 15 B1g  19 Ag    5 B2g   8 B1u  20 Ag    4 Au    7 B3g  19 B2u                
  1.726   1.779   1.786   1.826   1.919   2.032   2.034   2.071
 16 B3u  21 Ag   20 B2u  17 B3u  22 Ag    5 Au   18 B3u  16 B1g                
  2.139   2.211   2.330   2.447   2.496   2.503   2.547   2.564
  8 B3g  21 B2u  17 B1g  22 B2u  18 B1g   9 B1u  23 B2u  23 Ag                 
  2.579   2.617   2.714   2.866   2.906   3.023   3.056   3.057
  6 B2g   9 B3g  19 B3u  24 Ag    6 Au   10 B1u  25 Ag   24 B2u                
  3.076   3.092   3.140   3.185   3.239   3.267   3.509   3.538
 20 B3u   7 B2g  19 B1g   7 Au   10 B3g  20 B1g  26 Ag   21 B3u                
  3.680   3.728   3.755   3.778   3.780   4.243   4.249   4.255
 25 B2u  22 B3u  21 B1g  27 Ag   26 B2u  11 B1u  22 B1g  27 B2u                
  4.332   4.626   4.959   5.180   5.712  24.606  24.731  25.040
 11 B3g  28 Ag   28 B2u  23 B3u  23 B1g  29 Ag   24 B3u  24 B1g                
 25.056  36.817  36.990
 29 B2u  30 Ag   30 B2u                                                        
 

--------------------------------------------------------------------------------
                                   HF Summary                                   
--------------------------------------------------------------------------------
  Energy:                                                 -262.4996369937 a.u.
  Dip. moment [a.u.]:                  [   0.000000,   -0.000000,   -0.000000]
  Total dipole [Debye]:                                               0.000000
  <r^2> [a.u.]:                        [ 201.044603,  204.375519,   38.524562]
  Total <r^2> [a.u.]:                                               443.944684
--------------------------------------------------------------------------------

--------------------------------------------------------------------------------
                                 MP(2) Summary                                  
--------------------------------------------------------------------------------
  Energy contribution:                                      -0.9021478572 a.u.
  Total energy:                                           -263.4017848509 a.u.
  Dip. moment [a.u.]:                  [   0.000000,   -0.000000,   -0.000000]
  Total dipole [Debye]:                                               0.000000
  <r^2> [a.u.]:                        [ 200.668171,  202.937394,   37.756348]
  Total <r^2> [a.u.]:                                               441.361913
--------------------------------------------------------------------------------
  Starting Davidson ... 
--------------------------------------------------------------------------------
   It NVec Conv  Avg. Norm  Max. Norm  Conv. states           Remark
--------------------------------------------------------------------------------
         6    0  5.175e-01  1.272e+00 15.5875 n n n n n n     Guess.
    1   12    0  2.375e-01  6.802e-01 15.2587 n n n n n n     
    2   18    0  9.608e-02  3.047e-01 15.2121 n n n n n n     
    3   24    0  6.558e-02  3.137e-01 15.2070 n n n n n n     
    4   30    0  5.563e-02  2.828e-01 15.1870 n n n n n n     
    5   12    0  2.265e-02  8.558e-02 15.1824 n n n n n n     Subspace collapsed.
    6   18    0  2.029e-02  7.062e-02 15.1800 n n n n n n     
    7   24    0  2.631e-02  1.303e-01 15.1787 n n n n n n     
    8   30    0  1.509e-02  6.640e-02 15.1783 n n n n n n     
    9   12    0  8.397e-03  3.903e-02 15.1782 n n n n n n     Subspace collapsed.
   10   18    0  5.984e-03  2.749e-02 15.1782 n n n n n n     
   11   24    0  2.720e-03  1.210e-02 15.1782 n n n n n n     
   12   30    0  1.855e-03  8.224e-03 15.1782 n n n n n n     
   13   12    0  1.470e-03  6.856e-03 15.1782 n n n n n n     Subspace collapsed.
   14   18    0  1.347e-03  6.143e-03 15.1782 n n n n n n     
   15   24    0  1.049e-03  4.599e-03 15.1782 n n n n n n     
   16   30    0  8.636e-04  3.481e-03 15.1782 n n n n n n     
   17   12    0  6.987e-04  2.826e-03 15.1782 n n n n n n     Subspace collapsed.
   18   18    0  4.948e-04  1.909e-03 15.1782 n n n n n n     
   19   24    0  3.714e-04  1.409e-03 15.1782 n n n n n n     
   20   30    0  3.949e-04  1.602e-03 15.1782 n n n n n n     
   21   12    0  3.089e-04  1.308e-03 15.1782 n n n n n n     Subspace collapsed.
   22   18    0  2.860e-04  1.299e-03 15.1782 n n n n n n     
   23   24    0  2.623e-04  1.254e-03 15.1782 n n n n n n     
   24   30    0  3.028e-04  1.576e-03 15.1782 n n n n n n     
   25   12    0  2.076e-04  1.082e-03 15.1782 n n n n n n     Subspace collapsed.
   26   18    0  2.185e-04  1.167e-03 15.1782 n n n n n n     
   27   24    0  1.507e-04  8.320e-04 15.1782 n n n n n n     
   28   30    0  1.378e-04  7.704e-04 15.1782 n n n n n n     
   29   12    2  1.232e-04  6.960e-04 15.1782 y y n n n n     Subspace collapsed.
   30   18    2  1.622e-04  9.264e-04 15.1782 y y n n n n     
   31   24    2  1.193e-04  6.907e-04 15.1782 y y n n n n     
   32   30    2  1.512e-04  8.862e-04 15.1782 y y n n n n     
   33   12    2  9.659e-05  5.669e-04 15.1782 y y n n n n     Subspace collapsed.
   34   18    2  1.245e-04  7.335e-04 15.1782 y y n n n n     
   35   24    2  9.139e-05  5.413e-04 15.1782 y y n n n n     
   36   30    2  7.955e-05  4.724e-04 15.1782 y y n n n n     
   37   12    3  7.255e-05  4.314e-04 15.1782 y y y n n n     Subspace collapsed.
   38   18    3  8.380e-05  4.991e-04 15.1782 y y y n n n     
   39   24    3  6.390e-05  3.814e-04 15.1782 y y y n n n     
   40   30    3  8.906e-05  5.326e-04 15.1782 y y y n n n     
   41   12    3  5.535e-05  3.311e-04 15.1782 y y y n n n     Subspace collapsed.
   42   18    3  5.820e-05  3.483e-04 15.1782 y y y n n n     
   43   24    3  4.945e-05  2.961e-04 15.1782 y y y n n n     
   44   30    3  4.230e-05  2.534e-04 15.1782 y y y n n n     
   45   12    3  4.010e-05  2.403e-04 15.1782 y y y n n n     Subspace collapsed.
   46   18    3  4.054e-05  2.430e-04 15.1782 y y y n n n     
   47   24    3  4.528e-05  2.714e-04 15.1782 y y y n n n     
   48   30    3  6.462e-05  3.875e-04 15.1782 y y y n n n     
   49   12    3  3.389e-05  2.032e-04 15.1782 y y y n n n     Subspace collapsed.
   50   18    3  2.859e-05  1.715e-04 15.1782 y y y n n n     
   51   24    3  2.461e-05  1.476e-04 15.1782 y y y n n n     
   52   30    3  2.961e-05  1.776e-04 15.1782 y y y n n n     
   53   12    4  2.168e-05  1.301e-04 15.1782 y y y y n n     Subspace collapsed.
   54   18    4  2.483e-05  1.490e-04 15.1782 y y y y n n     
   55   24    4  2.265e-05  1.359e-04 15.1782 y y y y n n     
   56   30    4  4.263e-05  2.558e-04 15.1782 y y y y n n     
   57   12    4  1.775e-05  1.065e-04 15.1782 y y y y n n     Subspace collapsed.
   58   18    4  1.850e-05  1.110e-04 15.1782 y y y y n n     
   59   24    5  1.214e-05  7.282e-05 15.1782 y y y y y n     
--------------------------------------------------------------------------------
  Davidson Summary: 
 ------------------------------------------------------------
  State  0: excitation energy =  15.1782 a.u.   (converged)
  State  1: excitation energy =  15.2059 a.u.   (converged)
  State  2: excitation energy =  15.2095 a.u.   (converged)
  State  3: excitation energy =  15.2352 a.u.   (converged)
  State  4: excitation energy =  15.2460 a.u.   (converged)
  State  5: excitation energy =  15.2672 a.u.   (not converged)
 ------------------------------------------------------------

  Starting Davidson ... 
--------------------------------------------------------------------------------
   It NVec Conv  Avg. Norm  Max. Norm  Conv. states           Remark
--------------------------------------------------------------------------------
         6    0  5.199e-01  1.280e+00 15.5768 n n n n n n     Guess.
    1   12    0  2.744e-01  8.323e-01 15.2133 n n n n n n     
    2   18    0  1.382e-01  5.540e-01 15.1861 n n n n n n     
    3   24    0  1.146e-01  5.575e-01 15.1821 n n n n n n     
    4   30    0  4.150e-02  1.819e-01 15.0777 n n n n n n     
    5   12    0  5.674e-02  2.672e-01 15.0648 n n n n n n     Subspace collapsed.
    6   18    0  2.268e-02  1.124e-01 15.0135 n n n n n n     
    7   24    0  8.793e-03  3.079e-02 15.0084 n n n n n n     
    8   30    0  6.509e-03  3.243e-02 15.0081 n n n n n n     
    9   12    0  5.002e-03  2.605e-02 15.0081 n n n n n n     Subspace collapsed.
   10   18    0  5.482e-03  3.056e-02 15.0081 n n n n n n     
   11   24    0  7.263e-03  4.276e-02 15.0081 n n n n n n     
   12   30    0  7.298e-03  4.233e-02 15.0081 n n n n n n     
   13   12    0  3.809e-03  2.162e-02 15.0081 n n n n n n     Subspace collapsed.
   14   18    0  6.988e-03  3.991e-02 15.0081 n n n n n n     
   15   24    0  9.764e-03  5.646e-02 15.0081 n n n n n n     
   16   30    0  1.010e-02  5.585e-02 15.0081 n n n n n n     
   17   12    0  7.638e-03  4.095e-02 15.0081 n n n n n n     Subspace collapsed.
   18   18    0  7.460e-03  3.702e-02 15.0081 n n n n n n     
   19   24    1  5.710e-03  2.485e-02 15.0081 y n n n n n     
   20   30    1  7.180e-03  3.252e-02 15.0081 y n n n n n     
   21   12    2  4.181e-03  2.003e-02 15.0081 y y n n n n     Subspace collapsed.
   22   18    2  5.891e-03  2.952e-02 15.0081 y y n n n n     
   23   24    2  5.874e-03  3.038e-02 15.0081 y y n n n n     
   24   30    2  8.295e-03  4.434e-02 15.0081 y y n n n n     
   25   12    2  4.171e-03  2.260e-02 15.0081 y y n n n n     Subspace collapsed.
   26   18    2  4.348e-03  2.395e-02 15.0081 y y n n n n     
   27   24    2  3.236e-03  1.776e-02 15.0081 y y n n n n     
   28   30    2  3.780e-03  2.085e-02 15.0081 y y n n n n     
   29   12    2  2.369e-03  1.306e-02 15.0081 y y n n n n     Subspace collapsed.
   30   18    2  3.615e-03  1.984e-02 15.0081 y y n n n n     
   31   24    3  2.635e-03  1.436e-02 15.0081 y y y n n n     
   32   30    3  3.795e-03  2.045e-02 15.0081 y y y n n n     
   33   12    4  1.957e-03  1.058e-02 15.0081 y y y y n n     Subspace collapsed.
   34   18    4  2.435e-03  1.311e-02 15.0081 y y y y n n     
   35   24    4  1.490e-03  7.921e-03 15.0081 y y y y n n     
   36   30    4  1.916e-03  1.017e-02 15.0081 y y y y n n     
   37   12    4  1.106e-03  5.827e-03 15.0081 y y y y n n     Subspace collapsed.
   38   12    4  1.106e-03  5.827e-03 15.0081 y y y y n n     
   39   18    4  1.866e-03  9.779e-03 15.0081 y y y y n n     
   40   23    4  1.226e-03  6.298e-03 15.0081 y y y y n n     
   41   28    4  1.781e-03  8.880e-03 15.0081 y y y y n n     
   42   30    4  1.980e-03  9.768e-03 15.0081 y y y y n n     
   43   11    4  8.602e-04  4.275e-03 15.0081 y y y y n n     Subspace collapsed.
   44   16    4  1.199e-03  5.864e-03 15.0081 y y y y n n     
   45   21    4  6.497e-04  3.125e-03 15.0081 y y y y n n     
   46   25    4  8.224e-04  3.870e-03 15.0081 y y y y n n     
   47   29    4  1.167e-03  5.007e-03 15.0081 y y y y n n     
   48   30    4  1.173e-03  5.042e-03 15.0081 y y y y n n     
   49   10    4  4.450e-04  1.918e-03 15.0081 y y y y n n     Subspace collapsed.
   50   14    4  4.659e-04  2.049e-03 15.0081 y y y y n n     
   51   18    4  4.014e-04  1.830e-03 15.0081 y y y y n n     
   52   22    4  3.966e-04  1.848e-03 15.0081 y y y y n n     
   53   26    4  3.946e-04  1.922e-03 15.0081 y y y y n n     
   54   30    4  5.130e-04  2.665e-03 15.0081 y y y y n n     
   55   10    4  2.365e-04  1.231e-03 15.0081 y y y y n n     Subspace collapsed.
   56   14    4  2.085e-04  1.092e-03 15.0081 y y y y n n     
   57   18    4  1.573e-04  8.267e-04 15.0081 y y y y n n     
   58   22    4  1.859e-04  9.964e-04 15.0081 y y y y n n     
   59   26    4  1.265e-04  6.855e-04 15.0081 y y y y n n     
--------------------------------------------------------------------------------
  Davidson Summary: 
 ------------------------------------------------------------
  State  0: excitation energy =  15.0081 a.u.   (converged)
  State  1: excitation energy =  15.0616 a.u.   (converged)
  State  2: excitation energy =  15.1806 a.u.   (converged)
  State  3: excitation energy =  15.1882 a.u.   (converged)
  State  4: excitation energy =  15.2675 a.u.   (not converged)
  State  5: excitation energy =  15.2767 a.u.   (not converged)
 ------------------------------------------------------------

  Starting Davidson ... 
--------------------------------------------------------------------------------
   It NVec Conv  Avg. Norm  Max. Norm  Conv. states           Remark
--------------------------------------------------------------------------------
         6    0  5.358e-01  1.346e+00 15.4263 n n n n n n     Guess.
    1   12    0  3.792e-01  1.207e+00 15.2494 n n n n n n     
    2   18    0  1.560e-01  5.023e-01 15.0148 n n n n n n     
    3   24    0  9.540e-02  3.641e-01 15.0023 n n n n n n     
    4   30    0  5.327e-02  2.637e-01 15.0018 n n n n n n     
    5   12    0  7.528e-02  3.396e-01 15.0018 n n n n n n     Subspace collapsed.
    6   18    0  3.199e-02  1.337e-01 15.0018 n n n n n n     
    7   24    0  2.290e-02  9.885e-02 15.0018 n n n n n n     
    8   30    0  1.029e-02  4.310e-02 15.0018 n n n n n n     
    9   12    0  5.049e-03  1.867e-02 15.0018 n n n n n n     Subspace collapsed.
   10   18    0  3.641e-03  1.704e-02 15.0018 n n n n n n     
   11   24    0  1.757e-03  7.811e-03 15.0018 n n n n n n     
   12   30    0  9.718e-04  3.668e-03 15.0018 n n n n n n     
   13   12    1  4.864e-04  1.793e-03 15.0018 y n n n n n     Subspace collapsed.
   14   18    2  4.173e-04  1.512e-03 15.0018 y y n n n n     
   15   24    2  2.782e-04  9.772e-04 15.0018 y y n n n n     
   16   30    2  3.107e-04  1.418e-03 15.0018 y y n n n n     
   17   12    2  1.356e-04  5.935e-04 15.0018 y y n n n n     Subspace collapsed.
   18   18    2  1.332e-04  6.172e-04 15.0018 y y n n n n     
   19   24    2  9.209e-05  4.011e-04 15.0018 y y n n n n     
   20   30    2  9.028e-05  4.057e-04 15.0018 y y n n n n     
   21   12    2  5.934e-05  2.757e-04 15.0018 y y n n n n     Subspace collapsed.
   22   18    2  6.153e-05  2.951e-04 15.0018 y y n n n n     
   23   24    2  5.296e-05  2.543e-04 15.0018 y y n n n n     
   24   30    2  6.552e-05  2.978e-04 15.0018 y y n n n n     
   25   12    2  3.842e-05  1.743e-04 15.0018 y y n n n n     Subspace collapsed.
   26   18    2  3.435e-05  1.543e-04 15.0018 y y n n n n     
   27   24    2  3.034e-05  1.291e-04 15.0018 y y n n n n     
   28   29    2  3.024e-05  1.237e-04 15.0018 y y n n n n     
   29   30    2  2.809e-05  1.183e-04 15.0018 y y n n n n     
   30   10    2  2.529e-05  1.072e-04 15.0018 y y n n n n     Subspace collapsed.
   31   14    2  2.583e-05  1.111e-04 15.0018 y y n n n n     
   32   18    2  1.710e-05  7.626e-05 15.0018 y y n n n n     
   33   22    2  2.203e-05  1.058e-04 15.0018 y y n n n n     
   34   26    2  2.435e-05  1.294e-04 15.0018 y y n n n n     
   35   30    3  1.695e-05  9.383e-05 15.0018 y y y n n n     
   36   11    3  1.144e-05  6.346e-05 15.0018 y y y n n n     Subspace collapsed.
   37   15    3  1.079e-05  6.043e-05 15.0018 y y y n n n     
   38   19    3  6.727e-06  3.789e-05 15.0018 y y y n n n     
   39   23    3  5.014e-06  2.854e-05 15.0018 y y y n n n     
   40   23    3  5.014e-06  2.854e-05 15.0018 y y y n n n     
   41   29    3  3.882e-06  2.228e-05 15.0018 y y y n n n     
   42   30    3  4.065e-06  2.334e-05 15.0018 y y y n n n     
   43   12    3  2.534e-06  1.457e-05 15.0018 y y y n n n     Subspace collapsed.
   44   13    3  2.587e-06  1.488e-05 15.0018 y y y n n n     
   45   14    3  2.607e-06  1.499e-05 15.0018 y y y n n n     
   46   18    3  4.595e-06  2.669e-05 15.0018 y y y n n n     
   47   18    3  4.595e-06  2.669e-05 15.0018 y y y n n n     
   48   24    3  4.689e-06  2.758e-05 15.0018 y y y n n n     
   49   24    3  4.689e-06  2.758e-05 15.0018 y y y n n n     
   50   30    4  3.652e-06  2.163e-05 15.0018 y y y y n n     
   51   12    4  2.664e-06  1.580e-05 15.0018 y y y y n n     Subspace collapsed.
   52   17    4  2.829e-06  1.679e-05 15.0018 y y y y n n     
   53   21    4  1.443e-06  8.577e-06 15.0018 y y y y n n     
   54   25    4  1.382e-06  8.226e-06 15.0018 y y y y n n     
   55   25    4  1.382e-06  8.226e-06 15.0018 y y y y n n     
   56   30    4  1.720e-06  1.026e-05 15.0018 y y y y n n     
   57   11    5  1.224e-06  7.305e-06 15.0018 y y y y y n     Subspace collapsed.
   58   16    5  1.325e-06  7.910e-06 15.0018 y y y y y n     
   59   20    5  1.898e-06  1.135e-05 15.0018 y y y y y n     
--------------------------------------------------------------------------------
  Davidson Summary: 
 ------------------------------------------------------------
  State  0: excitation energy =  15.0018 a.u.   (converged)
  State  1: excitation energy =  15.0712 a.u.   (converged)
  State  2: excitation energy =  15.2620 a.u.   (converged)
  State  3: excitation energy =  15.2879 a.u.   (converged)
  State  4: excitation energy =  15.2969 a.u.   (converged)
  State  5: excitation energy =  15.3121 a.u.   (not converged)
 ------------------------------------------------------------

  Starting Davidson ... 
--------------------------------------------------------------------------------
   It NVec Conv  Avg. Norm  Max. Norm  Conv. states           Remark
--------------------------------------------------------------------------------
         6    0  5.208e-01  1.298e+00 15.3045 n n n n n n     Guess.
    1   12    0  3.184e-01  9.729e-01 15.0212 n n n n n n     
    2   18    0  1.788e-01  7.291e-01 14.9671 n n n n n n     
    3   24    0  9.363e-02  4.138e-01 14.9617 n n n n n n     
    4   30    0  5.638e-02  2.128e-01 14.9611 n n n n n n     
    5   12    0  3.107e-02  1.520e-01 14.9610 n n n n n n     Subspace collapsed.
    6   18    0  2.855e-02  1.200e-01 14.9610 n n n n n n     
    7   24    0  1.287e-02  5.084e-02 14.9610 n n n n n n     
    8   30    0  7.522e-03  3.127e-02 14.9610 n n n n n n     
    9   12    0  4.684e-03  2.059e-02 14.9610 n n n n n n     Subspace collapsed.
   10   18    0  3.849e-03  1.563e-02 14.9610 n n n n n n     
   11   24    0  2.296e-03  9.610e-03 14.9610 n n n n n n     
   12   30    0  1.486e-03  5.574e-03 14.9610 n n n n n n     
   13   12    0  8.910e-04  4.060e-03 14.9610 n n n n n n     Subspace collapsed.
   14   18    0  6.564e-04  2.840e-03 14.9610 n n n n n n     
   15   24    1  4.840e-04  2.113e-03 14.9610 y n n n n n     
   16   30    2  3.621e-04  1.560e-03 14.9610 y y n n n n     
   17   12    2  2.180e-04  9.506e-04 14.9610 y y n n n n     Subspace collapsed.
   18   18    2  2.817e-04  1.282e-03 14.9610 y y n n n n     
   19   24    2  1.880e-04  9.292e-04 14.9610 y y n n n n     
   20   30    2  1.738e-04  9.101e-04 14.9610 y y n n n n     
   21   12    2  9.622e-05  5.002e-04 14.9610 y y n n n n     Subspace collapsed.
   22   18    2  1.035e-04  5.440e-04 14.9610 y y n n n n     
   23   24    2  7.234e-05  3.937e-04 14.9610 y y n n n n     
   24   30    2  4.137e-05  2.294e-04 14.9610 y y n n n n     
   25   12    2  4.122e-05  2.322e-04 14.9610 y y n n n n     Subspace collapsed.
   26   18    2  4.581e-05  2.621e-04 14.9610 y y n n n n     
   27   24    4  3.055e-05  1.777e-04 14.9610 y y y y n n     
   28   30    4  2.934e-05  1.724e-04 14.9610 y y y y n n     
   29   12    4  1.699e-05  9.965e-05 14.9610 y y y y n n     Subspace collapsed.
   30   18    4  1.912e-05  1.127e-04 14.9610 y y y y n n     
   31   23    4  1.386e-05  8.197e-05 14.9610 y y y y n n     
   32   28    4  8.221e-06  4.878e-05 14.9610 y y y y n n     
   33   30    4  1.032e-05  6.140e-05 14.9610 y y y y n n     
   34   10    4  5.755e-06  3.427e-05 14.9610 y y y y n n     Subspace collapsed.
   35   14    4  8.395e-06  5.009e-05 14.9610 y y y y n n     
   36   18    4  6.927e-06  4.140e-05 14.9610 y y y y n n     
   37   22    4  5.097e-06  3.051e-05 14.9610 y y y y n n     
   38   26    4  4.291e-06  2.570e-05 14.9610 y y y y n n     
   39   30    4  3.306e-06  1.981e-05 14.9610 y y y y n n     
   40   10    5  1.345e-06  8.058e-06 14.9610 y y y y y n     Subspace collapsed.
   41   14    5  1.099e-06  6.587e-06 14.9610 y y y y y n     
   42   18    5  8.845e-07  5.303e-06 14.9610 y y y y y n     
   43   22    5  6.764e-07  4.055e-06 14.9610 y y y y y n     
   44   26    5  4.038e-07  2.421e-06 14.9610 y y y y y n     
   45   30    5  3.895e-07  2.336e-06 14.9610 y y y y y n     
   46   10    5  2.108e-07  1.264e-06 14.9610 y y y y y n     Subspace collapsed.
   47   14    5  3.255e-07  1.953e-06 14.9610 y y y y y n     
   48   18    5  2.245e-07  1.347e-06 14.9610 y y y y y n     
   49   22    5  1.786e-07  1.071e-06 14.9610 y y y y y n     
   50   22    5  1.786e-07  1.071e-06 14.9610 y y y y y n     
   51   27    6  1.515e-07  9.090e-07 14.9610 y y y y y y     Converged.
--------------------------------------------------------------------------------
  Davidson Summary: 
 ------------------------------------------------------------
  State  0: excitation energy =  14.9610 a.u.   (converged)
  State  1: excitation energy =  14.9929 a.u.   (converged)
  State  2: excitation energy =  15.1956 a.u.   (converged)
  State  3: excitation energy =  15.2067 a.u.   (converged)
  State  4: excitation energy =  15.2437 a.u.   (converged)
  State  5: excitation energy =  15.2553 a.u.   (converged)
 ------------------------------------------------------------

  Starting Davidson ... 
--------------------------------------------------------------------------------
   It NVec Conv  Avg. Norm  Max. Norm  Conv. states           Remark
--------------------------------------------------------------------------------
         6    0  5.349e-01  1.359e+00 15.3107 n n n n n n     Guess.
    1   12    0  3.118e-01  1.173e+00 14.9029 n n n n n n     
    2   18    0  2.134e-01  9.394e-01 14.8567 n n n n n n     
    3   24    0  1.145e-01  5.050e-01 14.8552 n n n n n n     
    4   30    0  8.219e-02  3.505e-01 14.8552 n n n n n n     
    5   12    0  6.399e-02  3.077e-01 14.8552 n n n n n n     Subspace collapsed.
    6   18    0  5.040e-02  2.242e-01 14.8551 n n n n n n     
    7   24    0  3.991e-02  1.519e-01 14.8551 n n n n n n     
    8   30    0  2.643e-02  1.003e-01 14.8551 n n n n n n     
    9   12    0  1.213e-02  4.538e-02 14.8551 n n n n n n     Subspace collapsed.
   10   18    0  9.016e-03  3.394e-02 14.8551 n n n n n n     
   11   24    1  5.049e-03  1.940e-02 14.8551 y n n n n n     
[...]

  Osc. strength:                                                      0.000000
  Trans. dip. moment [a.u.]:           [   0.000000,    0.000000,   -0.000000]
  <i|r^2|0> [a.u.]:                    [  -0.000000,    0.000000,   -0.000000]

  V1^2 = 0.0001, V2^2 = 0.9999

  Important amplitudes:
      core i       occ j       vir a        vir b           v   
    -------------------------------------------------------------
     1 (B2u) A   7 (Ag ) B    2 (B1u) A    4 (B1g) B      0.6627
     1 (B2u) A   7 (Ag ) B    4 (B1u) A    4 (B1g) B     -0.1510
    -------------------------------------------------------------
  ----------------------------------------------------------------------------


  Excited state 38 (Ag)                                        [not converged]
  ----------------------------------------------------------------------------
  Term symbol:  6 (-) B2g                                   R^2 =  7.28175e-05

  Total energy:                                           -248.1346254442 a.u.
  Excitation energy:                                             415.440536 eV


  V1^2 = 0.8205, V2^2 = 0.1795

  Important amplitudes:
      core i       occ j       vir a        vir b           v   
    -------------------------------------------------------------
     1 (B2u) A                7 (B2u) A                   0.7814
     1 (B2u) A               10 (B2u) A                   0.2523
    -------------------------------------------------------------
  ----------------------------------------------------------------------------


  Excited state 39 (B1g)                                       [not converged]
  ----------------------------------------------------------------------------
  Term symbol:  5 (-) B3g                                   R^2 =  3.26204e-04

  Total energy:                                           -248.1342868292 a.u.
  Excitation energy:                                             415.449750 eV


  V1^2 = 0.8254, V2^2 = 0.1746

  Important amplitudes:
      core i       occ j       vir a        vir b           v   
    -------------------------------------------------------------
     1 (B2u) A                6 (B3u) A                  -0.7806
     1 (B2u) A               10 (B3u) A                  -0.2765
    -------------------------------------------------------------
  ----------------------------------------------------------------------------


  Excited state 40 (B1u)                                           [converged]
  ----------------------------------------------------------------------------
  Term symbol:  5 (-) B3u                                   R^2 =  1.13273e-12

  Total energy:                                           -248.1331653666 a.u.
  Excitation energy:                                             415.480266 eV

  Osc. strength:                                                      0.000029
  Trans. dip. moment [a.u.]:           [  -0.000000,   -0.000000,   -0.001692]
  <i|r^2|0> [a.u.]:                    [   0.000000,    0.000000,    0.000000]

  V1^2 = 0.8154, V2^2 = 0.1846

  Important amplitudes:
      core i       occ j       vir a        vir b           v   
    -------------------------------------------------------------
     1 (B2u) B                2 (B3g) B                  -0.7993
     1 (B2u) B                3 (B3g) B                   0.4055
    -------------------------------------------------------------
  ----------------------------------------------------------------------------


  Excited state 41 (B1g)                                       [not converged]
  ----------------------------------------------------------------------------
  Term symbol:  6 (-) B3g                                   R^2 =  6.85457e-04

  Total energy:                                           -248.1250803535 a.u.
  Excitation energy:                                             415.700271 eV


  V1^2 = 0.8261, V2^2 = 0.1739

  Important amplitudes:
      core i       occ j       vir a        vir b           v   
    -------------------------------------------------------------
     1 (B2u) B                6 (B3u) B                   0.7939
     1 (B2u) B               10 (B3u) B                   0.2454
    -------------------------------------------------------------
  ----------------------------------------------------------------------------


  Excited state 42 (Au)                                        [not converged]
  ----------------------------------------------------------------------------
  Term symbol:  6 (-) B2u                                   R^2 =  1.92830e-06

  Total energy:                                           -248.1139275884 a.u.
  Excitation energy:                                             416.003753 eV


  V1^2 = 0.0020, V2^2 = 0.9980

  Important amplitudes:
      core i       occ j       vir a        vir b           v   
    -------------------------------------------------------------
     1 (B2u) A   7 (Ag ) B    8 (Ag ) A    1 (B2g) B     -0.5241
     1 (B2u) A   7 (Ag ) B    5 (B3u) A    2 (B1u) B      0.3389
    -------------------------------------------------------------
  ----------------------------------------------------------------------------


  Excited state 43 (B2g)                                           [converged]
  ----------------------------------------------------------------------------
  Term symbol:  5 (-) Ag                                    R^2 =  1.27454e-07

  Total energy:                                           -248.1138719214 a.u.
  Excitation energy:                                             416.005268 eV

  Osc. strength:                                                      0.000000
  Trans. dip. moment [a.u.]:           [  -0.000000,   -0.000000,    0.000000]
  <i|r^2|0> [a.u.]:                    [   0.000000,    0.000000,    0.000000]

  V1^2 = 0.0003, V2^2 = 0.9997

  Important amplitudes:
      core i       occ j       vir a        vir b           v   
    -------------------------------------------------------------
     1 (B2u) A   7 (Ag ) B    6 (B2u) A    1 (B2g) B     -0.6521
     1 (B2u) A   7 (Ag ) B    4 (B1g) A    2 (B1u) B     -0.1553
    -------------------------------------------------------------
  ----------------------------------------------------------------------------


  Excited state 44 (B2g)                                           [converged]
  ----------------------------------------------------------------------------
  Term symbol:  6 (-) Ag                                    R^2 =  9.53762e-07

  Total energy:                                           -248.1049013372 a.u.
  Excitation energy:                                             416.249370 eV

  Osc. strength:                                                      0.000000
  Trans. dip. moment [a.u.]:           [   0.000000,   -0.000000,   -0.000000]
  <i|r^2|0> [a.u.]:                    [   0.000000,    0.000000,    0.000000]

  V1^2 = 0.0006, V2^2 = 0.9994

  Important amplitudes:
      core i       occ j       vir a        vir b           v   
    -------------------------------------------------------------
     1 (B2u) B   7 (Ag ) B    1 (B2g) B    6 (B2u) B     -0.6632
     1 (B2u) B   7 (Ag ) B    4 (B1g) B    2 (B1u) B      0.1148
    -------------------------------------------------------------
  ----------------------------------------------------------------------------


  Excited state 45 (B1u)                                       [not converged]
  ----------------------------------------------------------------------------
  Term symbol:  6 (-) B3u                                   R^2 =  2.06914e-04

  Total energy:                                           -248.1002184484 a.u.
  Excitation energy:                                             416.376798 eV


  V1^2 = 0.0027, V2^2 = 0.9973

  Important amplitudes:
      core i       occ j       vir a        vir b           v   
    -------------------------------------------------------------
     1 (B2u) A   7 (Ag ) B    6 (B2u) A    2 (B1u) B     -0.4548
     1 (B2u) A   7 (Ag ) B    4 (B1g) A    1 (B2g) B     -0.4330
    -------------------------------------------------------------
  ----------------------------------------------------------------------------


  Excited state 46 (B3u)                                       [not converged]
  ----------------------------------------------------------------------------
  Term symbol:  5 (-) B1u                                   R^2 =  2.86300e-06

  Total energy:                                           -248.0981826042 a.u.
  Excitation energy:                                             416.432196 eV


  V1^2 = 0.0039, V2^2 = 0.9961

  Important amplitudes:
      core i       occ j       vir a        vir b           v   
    -------------------------------------------------------------
     1 (B2u) B   7 (Ag ) B    1 (Au ) B    2 (B1u) B     -0.4887
     1 (B2u) B   7 (Ag ) B    1 (Au ) B    3 (B1u) B      0.2352
    -------------------------------------------------------------
  ----------------------------------------------------------------------------


  Excited state 47 (B2g)                                       [not converged]
  ----------------------------------------------------------------------------
  Term symbol:  7 (-) Ag                                    R^2 =  1.13468e-05

  Total energy:                                           -248.0896923986 a.u.
  Excitation energy:                                             416.663226 eV


  V1^2 = 0.8064, V2^2 = 0.1936

  Important amplitudes:
      core i       occ j       vir a        vir b           v   
    -------------------------------------------------------------
     1 (B2u) A                2 (Au ) A                   0.8862
     1 (B2u) A                1 (Au ) A                   0.1226
    -------------------------------------------------------------
  ----------------------------------------------------------------------------


  Excited state 48 (B3u)                                       [not converged]
  ----------------------------------------------------------------------------
  Term symbol:  6 (-) B1u                                   R^2 =  6.35319e-05

  Total energy:                                           -248.0893086974 a.u.
  Excitation energy:                                             416.673667 eV


  V1^2 = 0.0094, V2^2 = 0.9906

  Important amplitudes:
      core i       occ j       vir a        vir b           v   
    -------------------------------------------------------------
     1 (B2u) B   7 (Ag ) B    1 (B2g) B    2 (B3g) B     -0.3471
     1 (B2u) B   7 (Ag ) B    1 (Au ) B    2 (B1u) B     -0.3458
    -------------------------------------------------------------
  ----------------------------------------------------------------------------


--------------------------------------------------------------------------------
  Time of ADC calculation:  CPU 22930.72 s  wall 7895.97 s
================================================================================
 
 --------------------------------------------------------------
             Orbital Energies (a.u.) and Symmetries
 --------------------------------------------------------------
 
 Alpha MOs, Unrestricted
 -- Occupied --                  
-15.662 -15.662 -11.403 -11.403 -11.402 -11.402  -1.399  -1.292
  1 B2u   1 Ag    1 B3u   2 Ag    2 B2u   1 B1g   3 Ag    3 B2u                
 -1.177  -1.010  -0.980  -0.818  -0.798  -0.766  -0.711  -0.673
  2 B3u   4 Ag    2 B1g   5 Ag    3 B3u   4 B2u   4 B3u   1 B1u                
 -0.633  -0.564  -0.507  -0.488  -0.487
  3 B1g   5 B2u   1 B2g   1 B3g   6 Ag                                         
 -- Virtual --                   
 -0.006   0.016   0.050   0.062   0.075   0.090   0.095   0.096
  1 Au    2 B1u   7 Ag    5 B3u   6 B2u   4 B1g   3 B1u   8 Ag                 
  0.121   0.123   0.126   0.138   0.139   0.178   0.180   0.181
  2 B3g   9 Ag    2 B2g   6 B3u   7 B2u   8 B2u   2 Au    5 B1g                
  0.183   0.236   0.237   0.242   0.263   0.267   0.271   0.276
  7 B3u  10 Ag    3 B3g   6 B1g   8 B3u   4 B1u  11 Ag    9 B2u                
  0.284   0.308   0.324   0.337   0.342   0.355   0.381   0.386
  7 B1g  12 Ag    4 B3g  10 B2u   9 B3u  13 Ag    8 B1g  11 B2u                
  0.395   0.447   0.451   0.551   0.592   0.608   0.613   0.643
 10 B3u  12 B2u   9 B1g  14 Ag   13 B2u  11 B3u   5 B1u   3 B2g                
  0.659   0.678   0.687   0.706   0.716   0.769   0.844   0.856
 15 Ag   12 B3u  10 B1g   5 B3g   3 Au   11 B1g  14 B2u  16 Ag                 
  0.862   0.898   0.908   0.910   0.935   0.957   0.983   1.036
 15 B2u  16 B2u  12 B1g  13 B3u  17 Ag   13 B1g  14 B3u   6 B1u                
  1.052   1.069   1.110   1.121   1.136   1.141   1.187   1.188
 18 Ag   17 B2u   6 B3g  14 B1g  15 B3u  18 B2u   7 B1u   4 B2g                
  1.255   1.331   1.347   1.439   1.496   1.530   1.551   1.654
 15 B1g  19 Ag    5 B2g   8 B1u  20 Ag    4 Au    7 B3g  19 B2u                
  1.717   1.763   1.781   1.820   1.919   2.008   2.009   2.054
 16 B3u  21 Ag   20 B2u  17 B3u  22 Ag   18 B3u   5 Au   16 B1g                
  2.113   2.198   2.327   2.451   2.486   2.515   2.549   2.570
  8 B3g  21 B2u  17 B1g  22 B2u  18 B1g   9 B1u  23 B2u  23 Ag                 
  2.582   2.623   2.713   2.883   2.907   2.994   3.060   3.069
  6 B2g   9 B3g  19 B3u  24 Ag    6 Au   10 B1u  25 Ag    7 B2g                
  3.070   3.078   3.139   3.158   3.212   3.266   3.502   3.531
 24 B2u  20 B3u  19 B1g   7 Au   10 B3g  20 B1g  26 Ag   21 B3u                
  3.679   3.726   3.752   3.775   3.780   4.245   4.250   4.271
 25 B2u  22 B3u  21 B1g  27 Ag   26 B2u  22 B1g  27 B2u  11 B1u                
  4.359   4.630   4.960   5.182   5.712  24.601  24.725  25.035
 11 B3g  28 Ag   28 B2u  23 B3u  23 B1g  29 Ag   24 B3u  24 B1g                
 25.051  36.824  36.997
 29 B2u  30 Ag   30 B2u                                                        
 
 Beta MOs, Unrestricted
 -- Occupied --                  
-15.672 -15.672 -11.395 -11.395 -11.394 -11.394  -1.395  -1.311
  1 B2u   1 Ag    1 B3u   2 Ag    2 B2u   1 B1g   3 Ag    3 B2u                
 -1.125  -0.994  -0.963  -0.815  -0.795  -0.759  -0.702  -0.634
  2 B3u   4 Ag    2 B1g   5 Ag    3 B3u   4 B2u   4 B3u   3 B1g                
 -0.617  -0.574  -0.540  -0.495  -0.083
  1 B1u   5 B2u   1 B3g   6 Ag    7 Ag                                         
 -- Virtual --                   
 -0.119   0.014   0.032   0.054   0.079   0.079   0.086   0.089
  1 B2g   2 B1u   5 B3u   6 B2u   4 B1g   8 Ag    3 B1u   1 Au                 
  0.106   0.109   0.119   0.130   0.132   0.168   0.175   0.177
  2 B3g   9 Ag    2 B2g   6 B3u   7 B2u   8 B2u   7 B3u   5 B1g                
  0.193   0.230   0.235   0.249   0.260   0.268   0.275   0.275
  2 Au   10 Ag    6 B1g   4 B1u   8 B3u  11 Ag    3 B3g   9 B2u                
  0.289   0.305   0.309   0.336   0.341   0.350   0.379   0.381
  7 B1g  12 Ag    4 B3g  10 B2u   9 B3u  13 Ag   11 B2u   8 B1g                
  0.397   0.451   0.473   0.554   0.608   0.629   0.650   0.662
 10 B3u  12 B2u   9 B1g  14 Ag   13 B2u  11 B3u   5 B1u  15 Ag                 
  0.679   0.680   0.688   0.740   0.749   0.773   0.849   0.858
  3 B2g  12 B3u  10 B1g   5 B3g   3 Au   11 B1g  14 B2u  16 Ag                 
  0.862   0.898   0.912   0.913   0.942   0.965   0.992   1.007
 15 B2u  16 B2u  13 B3u  12 B1g  17 Ag   13 B1g  14 B3u   6 B1u                
  1.046   1.075   1.081   1.123   1.137   1.138   1.223   1.226
 18 Ag   17 B2u   6 B3g  14 B1g  18 B2u  15 B3u   7 B1u   4 B2g                
  1.254   1.325   1.387   1.469   1.513   1.548   1.563   1.643
 15 B1g  19 Ag    5 B2g   8 B1u  20 Ag    4 Au    7 B3g  19 B2u                
  1.726   1.779   1.786   1.826   1.919   2.032   2.034   2.071
 16 B3u  21 Ag   20 B2u  17 B3u  22 Ag    5 Au   18 B3u  16 B1g                
  2.139   2.211   2.330   2.447   2.496   2.503   2.547   2.564
  8 B3g  21 B2u  17 B1g  22 B2u  18 B1g   9 B1u  23 B2u  23 Ag                 
  2.579   2.617   2.714   2.866   2.906   3.023   3.056   3.057
  6 B2g   9 B3g  19 B3u  24 Ag    6 Au   10 B1u  25 Ag   24 B2u                
  3.076   3.092   3.140   3.185   3.239   3.267   3.509   3.538
 20 B3u   7 B2g  19 B1g   7 Au   10 B3g  20 B1g  26 Ag   21 B3u                
  3.680   3.728   3.755   3.778   3.780   4.243   4.249   4.255
 25 B2u  22 B3u  21 B1g  27 Ag   26 B2u  11 B1u  22 B1g  27 B2u                
  4.332   4.626   4.959   5.180   5.712  24.606  24.731  25.040
 11 B3g  28 Ag   28 B2u  23 B3u  23 B1g  29 Ag   24 B3u  24 B1g                
 25.056  36.817  36.990
 29 B2u  30 Ag   30 B2u                                                        
 --------------------------------------------------------------
 
          Ground-State Mulliken Net Atomic Charges

     Atom                 Charge (a.u.)    Spin (a.u.)
  --------------------------------------------------------
      1 C                    -0.639795      -0.085037
      2 C                    -0.639795      -0.085037
      3 N                     0.474026       0.100421
      4 N                     0.474026       0.100421
      5 C                    -0.639795      -0.085037
      6 C                    -0.639795      -0.085037
      7 H                     0.402782       0.034826
      8 H                     0.402782       0.034826
      9 H                     0.402782       0.034826
     10 H                     0.402782       0.034826
  --------------------------------------------------------
  Sum of atomic charges =     0.000000
  Sum of spin   charges =     0.000000

 -----------------------------------------------------------------
                    Cartesian Multipole Moments
 -----------------------------------------------------------------
    Charge (ESU x 10^10)
                 0.0000
    Dipole Moment (Debye)
         X       0.0000      Y       0.0000      Z       0.0000
       Tot       0.0000
    Quadrupole Moments (Debye-Ang)
        XX     -39.4385     XY       0.0000     YY     -53.8582
        XZ       0.0000     YZ       0.0000     ZZ     -51.8169
    Octopole Moments (Debye-Ang^2)
       XXX       0.0000    XXY       0.0000    XYY       0.0000
       YYY       0.0000    XXZ       0.0000    XYZ       0.0000
       YYZ       0.0000    XZZ       0.0000    YZZ       0.0000
       ZZZ       0.0000
    Hexadecapole Moments (Debye-Ang^3)
      XXXX    -464.2344   XXXY       0.0000   XXYY    -143.1562
      XYYY       0.0000   YYYY    -471.6328   XXXZ       0.0000
      XXYZ       0.0000   XYYZ       0.0000   YYYZ       0.0000
      XXZZ    -122.5066   XYZZ       0.0000   YYZZ    -106.3419
      XZZZ       0.0000   YZZZ       0.0000   ZZZZ    -178.6606
 -----------------------------------------------------------------
Archival summary:
1\1\tp-linux1\SP\HF\BasisUnspecified\244\thomas\MonJan1619:21:412017MonJan1619:21:412017\0\\#,HF,BasisUnspecified,\\0,1\N\C,1,1.34606\H,2,1.0834,1,116.808\C,1,1.34606,2,115.185,3,180,0\H,4,1.0834,1,116.808,2,-180,0\C,2,1.39225,1,122.408,3,-180,0\H,6,1.0834,2,120.785,1,-180,0\N,6,1.34606,2,122.408,1,0,0\C,8,1.34606,6,115.185,2,0,0\H,9,1.0834,8,116.808,6,-180,0\\HF=-262.499637\\@

 Total job time:  7900.78s(wall), 22954.50s(cpu) 
 Mon Jan 16 19:21:41 2017

        *************************************************************
        *                                                           *
        *  Thank you very much for using Q-Chem.  Have a nice day.  *
        *                                                           *
        *************************************************************


0 sent ACK to 0 
now end server 0 ... 
cleanup process ... done
remove work dirs /scratch/qchem/qchem7586.0 -- /scratch/qchem/qchem7586.0
rm -rf /scratch/qchem/qchem7586.0
rm -rf /scratch/qchem/qchem7586
